21
 energy: -39.530635232731 gnorm: 0.000075515686 xtb: 6.6.1 (8d0f1dd)
B            0.00018398657220       -1.16303979778307       -0.00138713245302
N           -1.24625534839761       -0.24118088696523       -0.00176307329138
C           -2.51734946230292       -0.61967978173745       -0.00303396288239
C           -3.35679521838755        0.50389863596863       -0.00244646936485
C           -2.54062538588769        1.61145358222669       -0.00081783939662
C           -1.20561503168652        1.13797851152678       -0.00031322707528
C           -0.00039771253155        1.82096022244956        0.00049627312713
C            1.20508636610491        1.13844774694007       -0.00042125121999
N            1.24626576959986       -0.24069500562861       -0.00166510854563
C            2.51750789874462       -0.61869689160337       -0.00278888783955
C            3.35651366831165        0.50521023714966       -0.00233796434724
C            2.53991074575331        1.61244537909249       -0.00094904413396
F            0.00038041235730       -1.95004770795755       -1.13056265341055
F            0.00029279629296       -1.94915914224323        1.12842511946939
H           -2.78164402124964       -1.65989024691519       -0.00426018941937
H           -4.42848999446614        0.48256151777203       -0.00325865359038
H           -2.83126766455760        2.64363268430703        0.00001612032644
H           -0.00060689410044        2.90057101689020        0.00140203324910
H            2.78221055329446       -1.65880331368286       -0.00378948843152
H            4.42821629667925        0.48429285443598       -0.00307337463289
H            2.83014907275715        2.64473819205746       -0.00031729743745
