      -----------------------------------------------------------      
     |                   =====================                   |     
     |                           x T B                           |     
     |                   =====================                   |     
     |                         S. Grimme                         |     
     |          Mulliken Center for Theoretical Chemistry        |     
     |                    University of Bonn                     |     
      -----------------------------------------------------------      

   * xtb version 6.6.1 (8d0f1dd) compiled by 'conda@1efc2f54142f' on 2023-08-01

   xtb is free software: you can redistribute it and/or modify it under
   the terms of the GNU Lesser General Public License as published by
   the Free Software Foundation, either version 3 of the License, or
   (at your option) any later version.
   
   xtb is distributed in the hope that it will be useful,
   but WITHOUT ANY WARRANTY; without even the implied warranty of
   MERCHANTABILITY or FITNESS FOR A PARTICULAR PURPOSE.  See the
   GNU Lesser General Public License for more details.
   
   Cite this work as:
   * C. Bannwarth, E. Caldeweyher, S. Ehlert, A. Hansen, P. Pracht,
     J. Seibert, S. Spicher, S. Grimme, WIREs Comput. Mol. Sci., 2020, 11,
     e01493. DOI: 10.1002/wcms.1493
   
   for GFN2-xTB:
   * C. Bannwarth, S. Ehlert and S. Grimme., J. Chem. Theory Comput., 2019,
     15, 1652-1671. DOI: 10.1021/acs.jctc.8b01176
   for GFN1-xTB:
   * S. Grimme, C. Bannwarth, P. Shushkov, J. Chem. Theory Comput., 2017,
     13, 1989-2009. DOI: 10.1021/acs.jctc.7b00118
   for GFN0-xTB:
   * P. Pracht, E. Caldeweyher, S. Ehlert, S. Grimme, ChemRxiv, 2019, preprint.
     DOI: 10.26434/chemrxiv.8326202.v1
   for GFN-FF:
   * S. Spicher and S. Grimme, Angew. Chem. Int. Ed., 2020, 59, 15665-15673.
     DOI: 10.1002/anie.202004239
   
   for ALPB and GBSA implicit solvation:
   * S. Ehlert, M. Stahn, S. Spicher, S. Grimme, J. Chem. Theory Comput.,
     2021, 17, 4250-4261. DOI: 10.1021/acs.jctc.1c00471
   
   for DFT-D4:
   * E. Caldeweyher, C. Bannwarth and S. Grimme, J. Chem. Phys., 2017,
     147, 034112. DOI: 10.1063/1.4993215
   * E. Caldeweyher, S. Ehlert, A. Hansen, H. Neugebauer, S. Spicher,
     C. Bannwarth and S. Grimme, J. Chem. Phys., 2019, 150, 154122.
     DOI: 10.1063/1.5090222
   * E. Caldeweyher, J.-M. Mewes, S. Ehlert and S. Grimme, Phys. Chem. Chem. Phys.
     2020, 22, 8499-8512. DOI: 10.1039/D0CP00502A
   
   for sTDA-xTB:
   * S. Grimme and C. Bannwarth, J. Chem. Phys., 2016, 145, 054103.
     DOI: 10.1063/1.4959605
   
   in the mass-spec context:
   * V. Asgeirsson, C. Bauer and S. Grimme, Chem. Sci., 2017, 8, 4879.
     DOI: 10.1039/c7sc00601b
   * J. Koopman and S. Grimme, ACS Omega 2019, 4, 12, 15120-15133.
     DOI: 10.1021/acsomega.9b02011
   
   for metadynamics refer to:
   * S. Grimme, J. Chem. Theory Comput., 2019, 155, 2847-2862
     DOI: 10.1021/acs.jctc.9b00143
   
   for SPH calculations refer to:
   * S. Spicher and S. Grimme, J. Chem. Theory Comput., 2021, 17, 1701-1714
     DOI: 10.1021/acs.jctc.0c01306
   
   with help from (in alphabetical order)
   P. Atkinson, C. Bannwarth, F. Bohle, G. Brandenburg, E. Caldeweyher
   M. Checinski, S. Dohm, S. Ehlert, S. Ehrlich, I. Gerasimov, C. Hölzer
   A. Katbashev, J. Koopman, C. Lavigne, S. Lehtola, F. März, M. Müller,
   F. Musil, H. Neugebauer, J. Pisarek, C. Plett, P. Pracht, F. Pultar,
   J. Seibert, P. Shushkov, S. Spicher, M. Stahn, M. Steiner, T. Strunk,
   J. Stückrath, T. Rose, and J. Unsleber
   
 * started run on 2024/05/20 at 23:18:11.295     

           -------------------------------------------------
          |                Calculation Setup                |
           -------------------------------------------------

          program call               : xtb crest_best.xyz --gfn 2 --opt vtight --parallel 4
          coordinate file            : crest_best.xyz
          omp threads                :                     4

   ID    Z sym.   atoms
    1    5 B      1
    2    7 N      2, 9
    3    6 C      3-8, 10-12
    4    9 F      13, 14
    5    1 H      15-21

           -------------------------------------------------
          |                 G F N 2 - x T B                 |
           -------------------------------------------------

        Reference                      10.1021/acs.jctc.8b01176
      * Hamiltonian:
        H0-scaling (s, p, d)           1.850000    2.230000    2.230000
        zeta-weighting                 0.500000
      * Dispersion:
        s8                             2.700000
        a1                             0.520000
        a2                             5.000000
        s9                             5.000000
      * Repulsion:
        kExp                           1.500000    1.000000
        rExp                           1.000000
      * Coulomb:
        alpha                          2.000000
        third order                    shell-resolved
        anisotropic                    true
        a3                             3.000000
        a5                             4.000000
        cn-shift                       1.200000
        cn-exp                         4.000000
        max-rad                        5.000000


          ...................................................
          :                      SETUP                      :
          :.................................................:
          :  # basis functions                  63          :
          :  # atomic orbitals                  63          :
          :  # shells                           35          :
          :  # electrons                        70          :
          :  max. iterations                   250          :
          :  Hamiltonian                  GFN2-xTB          :
          :  restarted?                      false          :
          :  GBSA solvation                  false          :
          :  PC potential                    false          :
          :  electronic temp.          300.0000000     K    :
          :  accuracy                    1.0000000          :
          :  -> integral cutoff          0.2500000E+02      :
          :  -> integral neglect         0.1000000E-07      :
          :  -> SCF convergence          0.1000000E-05 Eh   :
          :  -> wf. convergence          0.1000000E-03 e    :
          :  Broyden damping             0.4000000          :
          ...................................................

 iter      E             dE          RMSdq      gap      omega  full diag
   1    -39.8646436 -0.398646E+02  0.570E+00    1.93       0.0  T
   2    -39.9987770 -0.134133E+00  0.387E+00    1.68       1.0  T
   3    -39.9912291  0.754799E-02  0.165E+00    1.91       1.0  T
   4    -40.0180771 -0.268480E-01  0.686E-01    1.70       1.0  T
   5    -40.0255184 -0.744134E-02  0.252E-01    1.77       1.0  T
   6    -40.0258854 -0.367011E-03  0.123E-01    1.74       1.0  T
   7    -40.0260203 -0.134883E-03  0.600E-02    1.76       1.0  T
   8    -40.0260667 -0.463528E-04  0.137E-02    1.76       1.6  T
   9    -40.0260687 -0.199228E-05  0.526E-03    1.76       4.1  T
  10    -40.0260687 -0.710341E-07  0.233E-03    1.76       9.4  T
  11    -40.0260687 -0.538261E-08  0.137E-03    1.76      16.0  T
  12    -40.0260688 -0.417993E-07  0.464E-04    1.76      47.0  T
  13    -40.0260688 -0.402031E-08  0.174E-04    1.76     125.2  T

   *** convergence criteria satisfied after 13 iterations ***

         #    Occupation            Energy/Eh            Energy/eV
      -------------------------------------------------------------
         1        2.0000           -0.7605243             -20.6949
       ...           ...                  ...                  ...
        29        2.0000           -0.4505580             -12.2603
        30        2.0000           -0.4426200             -12.0443
        31        2.0000           -0.4381943             -11.9239
        32        2.0000           -0.4284429             -11.6585
        33        2.0000           -0.4226022             -11.4996
        34        2.0000           -0.4222324             -11.4895
        35        2.0000           -0.3999903             -10.8843 (HOMO)
        36                         -0.3354377              -9.1277 (LUMO)
        37                         -0.2210361              -6.0147
        38                         -0.1959186              -5.3312
        39                         -0.1804166              -4.9094
        40                         -0.1384848              -3.7684
       ...                                ...                  ...
        63                          0.6757320              18.3876
      -------------------------------------------------------------
                  HL-Gap            0.0645526 Eh            1.7566 eV
             Fermi-level           -0.3677140 Eh          -10.0060 eV

 SCC (total)                   0 d,  0 h,  0 min,  0.052 sec
 SCC setup                      ...        0 min,  0.000 sec (  0.298%)
 Dispersion                     ...        0 min,  0.001 sec (  2.386%)
 classical contributions        ...        0 min,  0.001 sec (  2.210%)
 integral evaluation            ...        0 min,  0.003 sec (  6.285%)
 iterations                     ...        0 min,  0.042 sec ( 81.909%)
 molecular gradient             ...        0 min,  0.003 sec (  5.379%)
 printout                       ...        0 min,  0.001 sec (  1.431%)

         :::::::::::::::::::::::::::::::::::::::::::::::::::::
         ::                     SUMMARY                     ::
         :::::::::::::::::::::::::::::::::::::::::::::::::::::
         :: total energy             -39.522784665934 Eh    ::
         :: gradient norm              0.066599609651 Eh/a0 ::
         :: HOMO-LUMO gap              1.756565569431 eV    ::
         ::.................................................::
         :: SCC energy               -40.026068781817 Eh    ::
         :: -> isotropic ES            0.086834255557 Eh    ::
         :: -> anisotropic ES         -0.003635195660 Eh    ::
         :: -> anisotropic XC          0.012915824394 Eh    ::
         :: -> dispersion             -0.021149318115 Eh    ::
         :: repulsion energy           0.503243528402 Eh    ::
         :: add. restraining           0.000000000000 Eh    ::
         :: total charge              -0.000000000000 e     ::
         :::::::::::::::::::::::::::::::::::::::::::::::::::::

      ----------------------------------------------------------- 
     |                   =====================                   |
     |                        A N C O P T                        |
     |                   =====================                   |
     |               Approximate Normal Coordinate               |
     |                Rational Function Optimizer                |
      ----------------------------------------------------------- 

          ...................................................
          :                      SETUP                      :
          :.................................................:
          :   optimization level         verytight          :
          :   max. optcycles                   420          :
          :   ANC micro-cycles                  20          :
          :   degrees of freedom                57          :
          :.................................................:
          :   RF solver                   davidson          :
          :   write xtbopt.log                true          :
          :   linear?                        false          :
          :   energy convergence         0.1000000E-06 Eh   :
          :   grad. convergence          0.2000000E-03 Eh/α :
          :   maxmium RF displ.          1.0000000          :
          :   Hlow (freq-cutoff)         0.1000000E-01      :
          :   Hmax (freq-cutoff)         5.0000000          :
          :   S6 in model hess.         20.0000000          :
          ...................................................

generating ANC from model Hessian ...
Using Lindh-Hessian (1995)
 Shifting diagonal of input Hessian by    6.4065583686880581E-003
 Lowest  eigenvalues of input Hessian
    0.000000    0.000000    0.000000    0.000000    0.000000    0.000000
    0.010000    0.011440    0.016517    0.021248    0.022799    0.026473
    0.027535    0.033015    0.045665    0.050074    0.059227    0.065452
 Highest eigenvalues
    1.869371    1.901428    1.910356    1.947263    2.035871    2.157294


........................................................................
.............................. CYCLE    1 ..............................
........................................................................

 iter      E             dE          RMSdq      gap      omega  full diag
   1    -40.0260688 -0.400261E+02  0.354E-05    1.76       0.0  T
   2    -40.0260688 -0.800782E-11  0.213E-05    1.76    1023.0  T
   3    -40.0260688 -0.358824E-11  0.125E-05    1.76    1750.3  T
     SCC iter.                  ...        0 min,  0.003 sec
     gradient                   ...        0 min,  0.003 sec
 * total energy  :   -39.5227847 Eh     change       -0.4618030E-09 Eh
   gradient norm :     0.0665991 Eh/α   predicted     0.0000000E+00 (-100.00%)
   displ. norm   :     0.2330993 α      lambda       -0.1051326E-01
   maximum displ.:     0.1132591 α      in ANC's #23, #27, #24, ...

........................................................................
.............................. CYCLE    2 ..............................
........................................................................

 iter      E             dE          RMSdq      gap      omega  full diag
   1    -40.0447668 -0.400448E+02  0.352E-01    1.77       0.0  T
   2    -40.0448713 -0.104544E-03  0.207E-01    1.78       1.0  T
   3    -40.0448173  0.539988E-04  0.761E-02    1.77       1.0  T
   4    -40.0448946 -0.773074E-04  0.211E-02    1.78       1.0  T
   5    -40.0449017 -0.704659E-05  0.637E-03    1.78       3.4  T
   6    -40.0449017  0.767527E-08  0.387E-03    1.78       5.6  T
   7    -40.0449019 -0.203476E-06  0.106E-03    1.78      20.6  T
   8    -40.0449019 -0.152282E-07  0.513E-04    1.78      42.5  T
   9    -40.0449019 -0.236140E-08  0.291E-04    1.78      74.9  T
     SCC iter.                  ...        0 min,  0.007 sec
     gradient                   ...        0 min,  0.003 sec
 * total energy  :   -39.5296338 Eh     change       -0.6849092E-02 Eh
   gradient norm :     0.0223865 Eh/α   predicted    -0.5542417E-02 ( -19.08%)
   displ. norm   :     0.1271667 α      lambda       -0.1645166E-02
   maximum displ.:     0.0771352 α      in ANC's #6, #23, #24, ...

........................................................................
.............................. CYCLE    3 ..............................
........................................................................

 iter      E             dE          RMSdq      gap      omega  full diag
   1    -40.0511553 -0.400512E+02  0.149E-01    1.79       0.0  T
   2    -40.0511717 -0.164442E-04  0.871E-02    1.79       1.0  T
   3    -40.0511635  0.819583E-05  0.301E-02    1.79       1.0  T
   4    -40.0511766 -0.130308E-04  0.628E-03    1.79       3.5  T
   5    -40.0511769 -0.343943E-06  0.306E-03    1.79       7.1  T
   6    -40.0511769 -0.213289E-07  0.126E-03    1.79      17.3  T
   7    -40.0511769 -0.194057E-07  0.619E-04    1.79      35.3  T
   8    -40.0511769 -0.460017E-08  0.321E-04    1.79      68.0  T
     SCC iter.                  ...        0 min,  0.007 sec
     gradient                   ...        0 min,  0.003 sec
 * total energy  :   -39.5305258 Eh     change       -0.8919979E-03 Eh
   gradient norm :     0.0066876 Eh/α   predicted    -0.8361042E-03 (  -6.27%)
   displ. norm   :     0.0413453 α      lambda       -0.1071372E-03
   maximum displ.:     0.0338510 α      in ANC's #6, #23, #10, ...

........................................................................
.............................. CYCLE    4 ..............................
........................................................................

 iter      E             dE          RMSdq      gap      omega  full diag
   1    -40.0513086 -0.400513E+02  0.259E-02    1.79       0.0  T
   2    -40.0513100 -0.136021E-05  0.166E-02    1.79       1.3  T
   3    -40.0513096  0.354631E-06  0.763E-03    1.79       2.9  T
   4    -40.0513100 -0.370642E-06  0.410E-03    1.79       5.3  T
   5    -40.0513103 -0.284130E-06  0.974E-04    1.79      22.4  T
   6    -40.0513103 -0.384262E-08  0.312E-04    1.79      70.0  T
     SCC iter.                  ...        0 min,  0.005 sec
     gradient                   ...        0 min,  0.002 sec
 * total energy  :   -39.5306036 Eh     change       -0.7781654E-04 Eh
   gradient norm :     0.0040125 Eh/α   predicted    -0.5367611E-04 ( -31.02%)
   displ. norm   :     0.0375627 α      lambda       -0.5427561E-04
   maximum displ.:     0.0311520 α      in ANC's #6, #10, #17, ...

........................................................................
.............................. CYCLE    5 ..............................
........................................................................

 iter      E             dE          RMSdq      gap      omega  full diag
   1    -40.0512331 -0.400512E+02  0.266E-02    1.79       0.0  T
   2    -40.0512348 -0.171647E-05  0.173E-02    1.79       1.3  T
   3    -40.0512347  0.127997E-06  0.806E-03    1.79       2.7  T
   4    -40.0512349 -0.172465E-06  0.417E-03    1.79       5.2  T
   5    -40.0512351 -0.258492E-06  0.118E-03    1.79      18.4  T
   6    -40.0512352 -0.987481E-08  0.430E-04    1.79      50.7  T
   7    -40.0512352 -0.332387E-08  0.151E-04    1.79     144.9  T
     SCC iter.                  ...        0 min,  0.006 sec
     gradient                   ...        0 min,  0.002 sec
 * total energy  :   -39.5306329 Eh     change       -0.2933299E-04 Eh
   gradient norm :     0.0015347 Eh/α   predicted    -0.2717965E-04 (  -7.34%)
   displ. norm   :     0.0069167 α      lambda       -0.2404707E-05
   maximum displ.:     0.0045195 α      in ANC's #6, #1, #15, ...

........................................................................
.............................. CYCLE    6 ..............................
........................................................................

 iter      E             dE          RMSdq      gap      omega  full diag
   1    -40.0513022 -0.400513E+02  0.693E-03    1.79       0.0  T
   2    -40.0513022 -0.932130E-07  0.388E-03    1.79       5.6  T
   3    -40.0513022  0.550636E-08  0.183E-03    1.79      11.9  T
   4    -40.0513023 -0.193596E-07  0.743E-04    1.79      29.4  T
   5    -40.0513023 -0.321146E-08  0.384E-04    1.79      56.8  T
     SCC iter.                  ...        0 min,  0.004 sec
     gradient                   ...        0 min,  0.003 sec
 * total energy  :   -39.5306349 Eh     change       -0.2017505E-05 Eh
   gradient norm :     0.0005339 Eh/α   predicted    -0.1205865E-05 ( -40.23%)
   displ. norm   :     0.0032182 α      lambda       -0.3948228E-06
   maximum displ.:     0.0018157 α      in ANC's #1, #10, #3, ...

........................................................................
.............................. CYCLE    7 ..............................
........................................................................

 iter      E             dE          RMSdq      gap      omega  full diag
   1    -40.0513240 -0.400513E+02  0.304E-03    1.79       0.0  T
   2    -40.0513240 -0.268658E-07  0.180E-03    1.79      12.2  T
   3    -40.0513241 -0.225329E-08  0.101E-03    1.79      21.5  T
   4    -40.0513241 -0.525528E-08  0.358E-04    1.79      61.0  T
   5    -40.0513241 -0.179161E-08  0.826E-05    1.79     264.2  T
     SCC iter.                  ...        0 min,  0.005 sec
     gradient                   ...        0 min,  0.002 sec
 * total energy  :   -39.5306352 Eh     change       -0.2797230E-06 Eh
   gradient norm :     0.0001396 Eh/α   predicted    -0.2030130E-06 ( -27.42%)
   displ. norm   :     0.0017473 α      lambda       -0.4391939E-07
   maximum displ.:     0.0012953 α      in ANC's #1, #5, #2, ...

........................................................................
.............................. CYCLE    8 ..............................
........................................................................

 iter      E             dE          RMSdq      gap      omega  full diag
   1    -40.0513058 -0.400513E+02  0.133E-03    1.79       0.0  T
   2    -40.0513058 -0.396099E-09  0.795E-04    1.79      27.5  T
   3    -40.0513058  0.206114E-08  0.299E-04    1.79      73.0  T
     SCC iter.                  ...        0 min,  0.003 sec
     gradient                   ...        0 min,  0.002 sec
 * total energy  :   -39.5306352 Eh     change       -0.2782377E-07 Eh
   gradient norm :     0.0000746 Eh/α   predicted    -0.2475765E-07 ( -11.02%)
   displ. norm   :     0.0011748 α      lambda       -0.1685400E-07
   maximum displ.:     0.0008645 α      in ANC's #1, #6, #2, ...

   *** GEOMETRY OPTIMIZATION CONVERGED AFTER 8 ITERATIONS ***

------------------------------------------------------------------------
 total energy gain   :        -0.0078506 Eh       -4.9263 kcal/mol
 total RMSD          :         0.0871756 a0        0.0461 Å
 total power (kW/mol):        -2.5764568 (step) -266.1994 (real)
------------------------------------------------------------------------

 ANCopt (total)                0 d,  0 h,  0 min,  0.077 sec
 optimizer setup                ...        0 min,  0.000 sec (  0.122%)
 model hessian                  ...        0 min,  0.003 sec (  3.304%)
 ANC generation                 ...        0 min,  0.000 sec (  0.591%)
 coordinate transformation      ...        0 min,  0.000 sec (  0.189%)
 single point calculation       ...        0 min,  0.071 sec ( 91.732%)
 optimization log               ...        0 min,  0.001 sec (  1.458%)
 hessian update                 ...        0 min,  0.000 sec (  0.139%)
 rational function              ...        0 min,  0.001 sec (  1.018%)

================
 final structure:
================
21
 xtb: 6.6.1 (8d0f1dd)
B            0.00018398657220       -1.16303979778307       -0.00138713245302
N           -1.24625534839761       -0.24118088696523       -0.00176307329138
C           -2.51734946230292       -0.61967978173745       -0.00303396288239
C           -3.35679521838755        0.50389863596863       -0.00244646936485
C           -2.54062538588769        1.61145358222669       -0.00081783939662
C           -1.20561503168652        1.13797851152678       -0.00031322707528
C           -0.00039771253155        1.82096022244956        0.00049627312713
C            1.20508636610491        1.13844774694007       -0.00042125121999
N            1.24626576959986       -0.24069500562861       -0.00166510854563
C            2.51750789874462       -0.61869689160337       -0.00278888783955
C            3.35651366831165        0.50521023714966       -0.00233796434724
C            2.53991074575331        1.61244537909249       -0.00094904413396
F            0.00038041235730       -1.95004770795755       -1.13056265341055
F            0.00029279629296       -1.94915914224323        1.12842511946939
H           -2.78164402124964       -1.65989024691519       -0.00426018941937
H           -4.42848999446614        0.48256151777203       -0.00325865359038
H           -2.83126766455760        2.64363268430703        0.00001612032644
H           -0.00060689410044        2.90057101689020        0.00140203324910
H            2.78221055329446       -1.65880331368286       -0.00378948843152
H            4.42821629667925        0.48429285443598       -0.00307337463289
H            2.83014907275715        2.64473819205746       -0.00031729743745

 Bond Distances (Angstroems)
 ---------------------------
B1-N2=1.5503         B1-N9=1.5503         B1-F13=1.3764        B1-F14=1.3764        N2-B1=1.5503         N2-C3=1.3263         
N2-C6=1.3798         C3-N2=1.3263         C3-C4=1.4025         C3-H15=1.0733        C4-C3=1.4025         C4-C5=1.3758         
C4-H16=1.0719        C5-C4=1.3758         C5-C6=1.4165         C5-H17=1.0723        C6-N2=1.3798         C6-C5=1.4165         
C6-C7=1.3853         C7-C6=1.3853         C7-C8=1.3853         C7-H18=1.0796        C8-C7=1.3853         C8-N9=1.3798         
C8-C12=1.4165        N9-B1=1.5503         N9-C8=1.3798         N9-C10=1.3263        C10-N9=1.3263        C10-C11=1.4025       
C10-H19=1.0733       C11-C10=1.4025       C11-C12=1.3758       C11-H20=1.0719       C12-C8=1.4165        C12-C11=1.3758       
C12-H21=1.0723       F13-B1=1.3764        F14-B1=1.3764        H15-C3=1.0733        H16-C4=1.0719        H17-C5=1.0723        
H18-C7=1.0796        H19-C10=1.0733       H20-C11=1.0719       H21-C12=1.0723       
 C  H  Rav=1.0735 sigma=0.0025  Rmin=1.0719  Rmax=1.0796     7
 C  C  Rav=1.3950 sigma=0.0157  Rmin=1.3758  Rmax=1.4165     8
 N  B  Rav=1.5503 sigma=0.0000  Rmin=1.5503  Rmax=1.5503     2
 N  C  Rav=1.3530 sigma=0.0268  Rmin=1.3263  Rmax=1.3798     4
 F  B  Rav=1.3764 sigma=0.0000  Rmin=1.3764  Rmax=1.3764     2

 selected bond angles (degree)
 --------------------
N9-B1-N2=107.00                F13-B1-N2=109.87               F13-B1-N9=109.87               F14-B1-N2=109.87               
F14-B1-N9=109.87               F14-B1-F13=110.29              C3-N2-B1=126.93                C6-N2-B1=124.80                
C6-N2-C3=108.27                C4-C3-N2=110.18                H15-C3-N2=120.84               H15-C3-C4=128.98               
C5-C4-C3=106.85                H16-C4-C3=125.62               H16-C4-C5=127.53               C6-C5-C4=106.86                
H17-C5-C4=127.89               H17-C5-C6=125.25               C5-C6-N2=107.84                C7-C6-N2=121.23                
C7-C6-C5=130.93                C8-C7-C6=120.94                H18-C7-C6=119.53               H18-C7-C8=119.53               
N9-C8-C7=121.23                C12-C8-C7=130.93               C12-C8-N9=107.84               C8-N9-B1=124.80                
C10-N9-B1=126.93               C10-N9-C8=108.27               C11-C10-N9=110.18              H19-C10-N9=120.84              
H19-C10-C11=128.98             

 selected dihedral angles (degree)
 ---------------------------------
C3-N2-B1-N9=179.93            C3-N2-B1-F13= 60.68           C3-N2-B1-F14=299.17           C6-N2-B1-N9=359.90            
C6-N2-B1-F13=240.66           C6-N2-B1-F14=119.14           C4-C3-N2-B1=179.98            C4-C3-N2-C6=  0.00            
H15-C3-N2-B1=  0.00           H15-C3-N2-C6=180.00           C5-C4-C3-N2=  0.00            C5-C4-C3-H15=180.00           
H16-C4-C3-N2=180.00           H16-C4-C3-H15=  0.00          C6-C5-C4-C3=  0.00            C6-C5-C4-H16=180.00           
H17-C5-C4-C3=180.00           H17-C5-C4-H16=  0.00          C5-C6-N2-B1=180.02            C5-C6-N2-C3=  0.00            
C7-C6-N2-B1=  0.06            C7-C6-N2-C3=180.04            N2-C6-C5-C4=  0.00            N2-C6-C5-H17=180.00           
C7-C6-C5-C4=179.96            C7-C6-C5-H17=359.96           C8-C7-C6-N2=  0.00            C8-C7-C6-C5=180.06            
H18-C7-C6-N2=179.99           H18-C7-C6-C5=  0.03           N9-C8-C7-C6=359.98            N9-C8-C7-H18=180.00           
C12-C8-C7-C6=179.94           C12-C8-C7-H18=359.97          C8-N9-B1-N2=  0.09            C8-N9-B1-F13=119.33           
C8-N9-B1-F14=240.85           C10-N9-B1-N2=180.07           C10-N9-B1-F13=299.31          C10-N9-B1-F14= 60.83          
B1-N9-C8-C7=359.96            B1-N9-C8-C12=179.99           C10-N9-C8-C7=179.98           C10-N9-C8-C12=  0.00          
C11-C10-N9-B1=180.01          C11-C10-N9-C8=  0.00          H19-C10-N9-B1=  0.00          H19-C10-N9-C8=179.99          
           -------------------------------------------------
          |                Final Singlepoint                |
           -------------------------------------------------

          ...................................................
          :                      SETUP                      :
          :.................................................:
          :  # basis functions                  63          :
          :  # atomic orbitals                  63          :
          :  # shells                           35          :
          :  # electrons                        70          :
          :  max. iterations                   250          :
          :  Hamiltonian                  GFN2-xTB          :
          :  restarted?                      false          :
          :  GBSA solvation                  false          :
          :  PC potential                    false          :
          :  electronic temp.          300.0000000     K    :
          :  accuracy                    1.0000000          :
          :  -> integral cutoff          0.2500000E+02      :
          :  -> integral neglect         0.1000000E-07      :
          :  -> SCF convergence          0.1000000E-05 Eh   :
          :  -> wf. convergence          0.1000000E-03 e    :
          :  Broyden damping             0.4000000          :
          ...................................................

 iter      E             dE          RMSdq      gap      omega  full diag
   1    -40.0513058 -0.400513E+02  0.524E-05    1.79       0.0  T
   2    -40.0513058 -0.100115E-10  0.391E-05    1.79     558.7  T
   3    -40.0513058 -0.332747E-10  0.122E-05    1.79    1785.5  T

   *** convergence criteria satisfied after 3 iterations ***

         #    Occupation            Energy/Eh            Energy/eV
      -------------------------------------------------------------
         1        2.0000           -0.7666396             -20.8613
       ...           ...                  ...                  ...
        29        2.0000           -0.4548586             -12.3773
        30        2.0000           -0.4459853             -12.1359
        31        2.0000           -0.4437266             -12.0744
        32        2.0000           -0.4336703             -11.8008
        33        2.0000           -0.4263877             -11.6026
        34        2.0000           -0.4261757             -11.5968
        35        2.0000           -0.3983602             -10.8399 (HOMO)
        36                         -0.3325518              -9.0492 (LUMO)
        37                         -0.2169142              -5.9025
        38                         -0.1937089              -5.2711
        39                         -0.1792370              -4.8773
        40                         -0.1358543              -3.6968
       ...                                ...                  ...
        63                          0.6889917              18.7484
      -------------------------------------------------------------
                  HL-Gap            0.0658084 Eh            1.7907 eV
             Fermi-level           -0.3654560 Eh           -9.9446 eV

 SCC (total)                   0 d,  0 h,  0 min,  0.007 sec
 SCC setup                      ...        0 min,  0.000 sec (  1.207%)
 Dispersion                     ...        0 min,  0.000 sec (  1.078%)
 classical contributions        ...        0 min,  0.000 sec (  0.247%)
 integral evaluation            ...        0 min,  0.001 sec ( 15.688%)
 iterations                     ...        0 min,  0.004 sec ( 49.331%)
 molecular gradient             ...        0 min,  0.002 sec ( 30.951%)
 printout                       ...        0 min,  0.000 sec (  1.028%)

         :::::::::::::::::::::::::::::::::::::::::::::::::::::
         ::                     SUMMARY                     ::
         :::::::::::::::::::::::::::::::::::::::::::::::::::::
         :: total energy             -39.530635232731 Eh    ::
         :: gradient norm              0.000075515686 Eh/a0 ::
         :: HOMO-LUMO gap              1.790739035174 eV    ::
         ::.................................................::
         :: SCC energy               -40.051305806961 Eh    ::
         :: -> isotropic ES            0.083951198180 Eh    ::
         :: -> anisotropic ES         -0.002748433810 Eh    ::
         :: -> anisotropic XC          0.011218225696 Eh    ::
         :: -> dispersion             -0.021117096531 Eh    ::
         :: repulsion energy           0.520632183454 Eh    ::
         :: add. restraining           0.000000000000 Eh    ::
         :: total charge               0.000000000000 e     ::
         :::::::::::::::::::::::::::::::::::::::::::::::::::::

           -------------------------------------------------
          |                Property Printout                |
           -------------------------------------------------

    * Orbital Energies and Occupations

         #    Occupation            Energy/Eh            Energy/eV
      -------------------------------------------------------------
         1        2.0000           -0.7666396             -20.8613
       ...           ...                  ...                  ...
        23        2.0000           -0.4915236             -13.3750
        24        2.0000           -0.4822024             -13.1214
        25        2.0000           -0.4771548             -12.9840
        26        2.0000           -0.4754798             -12.9385
        27        2.0000           -0.4686644             -12.7530
        28        2.0000           -0.4596345             -12.5073
        29        2.0000           -0.4548586             -12.3773
        30        2.0000           -0.4459853             -12.1359
        31        2.0000           -0.4437266             -12.0744
        32        2.0000           -0.4336703             -11.8008
        33        2.0000           -0.4263877             -11.6026
        34        2.0000           -0.4261757             -11.5968
        35        2.0000           -0.3983602             -10.8399 (HOMO)
        36                         -0.3325518              -9.0492 (LUMO)
        37                         -0.2169142              -5.9025
        38                         -0.1937089              -5.2711
        39                         -0.1792370              -4.8773
        40                         -0.1358543              -3.6968
        41                          0.0412046               1.1212
        42                          0.0442621               1.2044
        43                          0.0825897               2.2474
        44                          0.0957813               2.6063
        45                          0.1149780               3.1287
        46                          0.1327649               3.6127
       ...                                ...                  ...
        63                          0.6889917              18.7484
      -------------------------------------------------------------
                  HL-Gap            0.0658084 Eh            1.7907 eV
             Fermi-level           -0.3654560 Eh           -9.9446 eV

     #   Z          covCN         q      C6AA      α(0)
     1   5 B        3.111     0.522    14.272     6.301
     2   7 N        2.748    -0.092    23.041     7.129
     3   6 C        3.076     0.044    26.927     8.508
     4   6 C        3.035    -0.051    29.233     8.868
     5   6 C        3.036    -0.043    29.021     8.836
     6   6 C        3.133     0.049    26.703     8.459
     7   6 C        2.900    -0.018    28.451     8.746
     8   6 C        3.133     0.049    26.703     8.459
     9   7 N        2.748    -0.092    23.041     7.129
    10   6 C        3.076     0.044    26.927     8.508
    11   6 C        3.035    -0.051    29.233     8.868
    12   6 C        3.036    -0.043    29.021     8.836
    13   9 F        0.722    -0.369    13.147     4.282
    14   9 F        0.722    -0.369    13.147     4.282
    15   1 H        0.926     0.072     2.058     2.244
    16   1 H        0.926     0.051     2.313     2.378
    17   1 H        0.926     0.050     2.316     2.380
    18   1 H        0.926     0.073     2.050     2.239
    19   1 H        0.926     0.072     2.058     2.244
    20   1 H        0.926     0.051     2.313     2.378
    21   1 H        0.926     0.050     2.316     2.380

 Mol. C6AA /au·bohr⁶  :       6139.253150
 Mol. C8AA /au·bohr⁸  :     152046.040758
 Mol. α(0) /au        :        123.452667


Wiberg/Mayer (AO) data.
largest (>0.10) Wiberg bond orders for each atom

 ---------------------------------------------------------------------------
     #   Z sym  total        # sym  WBO       # sym  WBO       # sym  WBO
 ---------------------------------------------------------------------------
     1   5 B    3.388 --    13 F    0.874    14 F    0.874     2 N    0.794
                             9 N    0.794
     2   7 N    3.615 --     3 C    1.416     6 C    1.150     1 B    0.794
     3   6 C    3.930 --     2 N    1.416     4 C    1.329    15 H    0.966
     4   6 C    3.961 --     5 C    1.535     3 C    1.329    16 H    0.973
     5   6 C    3.954 --     4 C    1.535     6 C    1.248    17 H    0.972
     6   6 C    3.964 --     7 C    1.372     5 C    1.248     2 N    1.150
     7   6 C    3.986 --     6 C    1.372     8 C    1.372    18 H    0.962
     8   6 C    3.964 --     7 C    1.372    12 C    1.248     9 N    1.150
     9   7 N    3.615 --    10 C    1.416     8 C    1.150     1 B    0.794
    10   6 C    3.930 --     9 N    1.416    11 C    1.329    19 H    0.966
    11   6 C    3.961 --    12 C    1.535    10 C    1.329    20 H    0.973
    12   6 C    3.954 --    11 C    1.535     8 C    1.248    21 H    0.972
    13   9 F    0.973 --     1 B    0.874
    14   9 F    0.973 --     1 B    0.874
    15   1 H    0.994 --     3 C    0.966
    16   1 H    0.997 --     4 C    0.973
    17   1 H    0.997 --     5 C    0.972
    18   1 H    0.994 --     7 C    0.962
    19   1 H    0.994 --    10 C    0.966
    20   1 H    0.997 --    11 C    0.973
    21   1 H    0.997 --    12 C    0.972
 ---------------------------------------------------------------------------

Topologies differ in total number of bonds
Writing topology from bond orders to xtbtopo.mol

molecular dipole:
                 x           y           z       tot (Debye)
 q only:       -0.000       1.887      -0.001
   full:       -0.000       1.976      -0.001       5.023
molecular quadrupole (traceless):
                xx          xy          yy          xz          yz          zz
 q only:       11.978       0.003      -4.844       0.001       0.001      -7.135
  q+dip:       14.800       0.003      -2.494       0.001       0.007     -12.306
   full:       12.857       0.003      -4.427       0.001       0.002      -8.430

           -------------------------------------------------
          |                Geometry Summary                 |
           -------------------------------------------------

      molecular mass/u    :      191.9734491
   center of mass at/Å    :       -0.0000401      -0.0121790      -0.0013986
  moments of inertia/u·Å² :        0.3864055E+03   0.7760683E+03   0.1065524E+04
rotational constants/cm⁻¹ :        0.4362679E-01   0.2172184E-01   0.1582098E-01

 * 23 selected distances

     #   Z          #   Z                                           value/Å
     1   5 B        2   7 N                                       1.5503017
     2   7 N        3   6 C                                       1.3262517
     3   6 C        4   6 C                                       1.4025328
     4   6 C        5   6 C                                       1.3757958
     2   7 N        6   6 C                                       1.3797589
     5   6 C        6   6 C                                       1.4164858
     6   6 C        7   6 C                                       1.3852847
     7   6 C        8   6 C                                       1.3852857
     1   5 B        9   7 N                                       1.5503033 (max)
     8   6 C        9   7 N                                       1.3797581
     9   7 N       10   6 C                                       1.3262517
    10   6 C       11   6 C                                       1.4025329
     8   6 C       12   6 C                                       1.4164853
    11   6 C       12   6 C                                       1.3757951
     1   5 B       13   9 F                                       1.3763790
     1   5 B       14   9 F                                       1.3763937
     3   6 C       15   1 H                                       1.0732619
     4   6 C       16   1 H                                       1.0719076
     5   6 C       17   1 H                                       1.0723188
     7   6 C       18   1 H                                       1.0796113
    10   6 C       19   1 H                                       1.0732614
    11   6 C       20   1 H                                       1.0719071 (min)
    12   6 C       21   1 H                                       1.0723187

 * 5 distinct bonds (by element types)

   Z      Z             #   av. dist./Å        max./Å        min./Å
   1 H    6 C           7     1.0735124     1.0796113     1.0719071
   6 C    6 C           8     1.3950248     1.4164858     1.3757951
   5 B    7 N           2     1.5503025     1.5503033     1.5503017
   6 C    7 N           4     1.3530051     1.3797589     1.3262517
   5 B    9 F           2     1.3763864     1.3763937     1.3763790


optimized geometry written to: xtbopt.xyz


           -------------------------------------------------
          | TOTAL ENERGY              -39.530635232731 Eh   |
          | GRADIENT NORM               0.000075515686 Eh/α |
          | HOMO-LUMO GAP               1.790739035174 eV   |
           -------------------------------------------------

------------------------------------------------------------------------
 * finished run on 2024/05/20 at 23:18:11.447     
------------------------------------------------------------------------
 total:
 * wall-time:     0 d,  0 h,  0 min,  0.151 sec
 *  cpu-time:     0 d,  0 h,  0 min,  0.960 sec
 * ratio c/w:     6.356 speedup
 SCF:
 * wall-time:     0 d,  0 h,  0 min,  0.052 sec
 *  cpu-time:     0 d,  0 h,  0 min,  0.302 sec
 * ratio c/w:     5.793 speedup
 ANC optimizer:
 * wall-time:     0 d,  0 h,  0 min,  0.086 sec
 *  cpu-time:     0 d,  0 h,  0 min,  0.607 sec
 * ratio c/w:     7.064 speedup

