      -----------------------------------------------------------      
     |                   =====================                   |     
     |                           x T B                           |     
     |                   =====================                   |     
     |                         S. Grimme                         |     
     |          Mulliken Center for Theoretical Chemistry        |     
     |                    University of Bonn                     |     
      -----------------------------------------------------------      

   * xtb version 6.6.1 (8d0f1dd) compiled by 'conda@1efc2f54142f' on 2023-08-01

   xtb is free software: you can redistribute it and/or modify it under
   the terms of the GNU Lesser General Public License as published by
   the Free Software Foundation, either version 3 of the License, or
   (at your option) any later version.
   
   xtb is distributed in the hope that it will be useful,
   but WITHOUT ANY WARRANTY; without even the implied warranty of
   MERCHANTABILITY or FITNESS FOR A PARTICULAR PURPOSE.  See the
   GNU Lesser General Public License for more details.
   
   Cite this work as:
   * C. Bannwarth, E. Caldeweyher, S. Ehlert, A. Hansen, P. Pracht,
     J. Seibert, S. Spicher, S. Grimme, WIREs Comput. Mol. Sci., 2020, 11,
     e01493. DOI: 10.1002/wcms.1493
   
   for GFN2-xTB:
   * C. Bannwarth, S. Ehlert and S. Grimme., J. Chem. Theory Comput., 2019,
     15, 1652-1671. DOI: 10.1021/acs.jctc.8b01176
   for GFN1-xTB:
   * S. Grimme, C. Bannwarth, P. Shushkov, J. Chem. Theory Comput., 2017,
     13, 1989-2009. DOI: 10.1021/acs.jctc.7b00118
   for GFN0-xTB:
   * P. Pracht, E. Caldeweyher, S. Ehlert, S. Grimme, ChemRxiv, 2019, preprint.
     DOI: 10.26434/chemrxiv.8326202.v1
   for GFN-FF:
   * S. Spicher and S. Grimme, Angew. Chem. Int. Ed., 2020, 59, 15665-15673.
     DOI: 10.1002/anie.202004239
   
   for ALPB and GBSA implicit solvation:
   * S. Ehlert, M. Stahn, S. Spicher, S. Grimme, J. Chem. Theory Comput.,
     2021, 17, 4250-4261. DOI: 10.1021/acs.jctc.1c00471
   
   for DFT-D4:
   * E. Caldeweyher, C. Bannwarth and S. Grimme, J. Chem. Phys., 2017,
     147, 034112. DOI: 10.1063/1.4993215
   * E. Caldeweyher, S. Ehlert, A. Hansen, H. Neugebauer, S. Spicher,
     C. Bannwarth and S. Grimme, J. Chem. Phys., 2019, 150, 154122.
     DOI: 10.1063/1.5090222
   * E. Caldeweyher, J.-M. Mewes, S. Ehlert and S. Grimme, Phys. Chem. Chem. Phys.
     2020, 22, 8499-8512. DOI: 10.1039/D0CP00502A
   
   for sTDA-xTB:
   * S. Grimme and C. Bannwarth, J. Chem. Phys., 2016, 145, 054103.
     DOI: 10.1063/1.4959605
   
   in the mass-spec context:
   * V. Asgeirsson, C. Bauer and S. Grimme, Chem. Sci., 2017, 8, 4879.
     DOI: 10.1039/c7sc00601b
   * J. Koopman and S. Grimme, ACS Omega 2019, 4, 12, 15120-15133.
     DOI: 10.1021/acsomega.9b02011
   
   for metadynamics refer to:
   * S. Grimme, J. Chem. Theory Comput., 2019, 155, 2847-2862
     DOI: 10.1021/acs.jctc.9b00143
   
   for SPH calculations refer to:
   * S. Spicher and S. Grimme, J. Chem. Theory Comput., 2021, 17, 1701-1714
     DOI: 10.1021/acs.jctc.0c01306
   
   with help from (in alphabetical order)
   P. Atkinson, C. Bannwarth, F. Bohle, G. Brandenburg, E. Caldeweyher
   M. Checinski, S. Dohm, S. Ehlert, S. Ehrlich, I. Gerasimov, C. Hölzer
   A. Katbashev, J. Koopman, C. Lavigne, S. Lehtola, F. März, M. Müller,
   F. Musil, H. Neugebauer, J. Pisarek, C. Plett, P. Pracht, F. Pultar,
   J. Seibert, P. Shushkov, S. Spicher, M. Stahn, M. Steiner, T. Strunk,
   J. Stückrath, T. Rose, and J. Unsleber
   
 * started run on 2024/05/20 at 01:53:54.370     

           -------------------------------------------------
          |                Calculation Setup                |
           -------------------------------------------------

          program call               : xtb crest_best.xyz --gfn 2 --opt vtight --parallel 4
          coordinate file            : crest_best.xyz
          omp threads                :                     4

   ID    Z sym.   atoms
    1    5 B      1
    2    7 N      2, 9
    3    6 C      3-8, 10-12
    4    9 F      13, 14
    5    1 H      15-21

           -------------------------------------------------
          |                 G F N 2 - x T B                 |
           -------------------------------------------------

        Reference                      10.1021/acs.jctc.8b01176
      * Hamiltonian:
        H0-scaling (s, p, d)           1.850000    2.230000    2.230000
        zeta-weighting                 0.500000
      * Dispersion:
        s8                             2.700000
        a1                             0.520000
        a2                             5.000000
        s9                             5.000000
      * Repulsion:
        kExp                           1.500000    1.000000
        rExp                           1.000000
      * Coulomb:
        alpha                          2.000000
        third order                    shell-resolved
        anisotropic                    true
        a3                             3.000000
        a5                             4.000000
        cn-shift                       1.200000
        cn-exp                         4.000000
        max-rad                        5.000000


          ...................................................
          :                      SETUP                      :
          :.................................................:
          :  # basis functions                  63          :
          :  # atomic orbitals                  63          :
          :  # shells                           35          :
          :  # electrons                        70          :
          :  max. iterations                   250          :
          :  Hamiltonian                  GFN2-xTB          :
          :  restarted?                      false          :
          :  GBSA solvation                  false          :
          :  PC potential                    false          :
          :  electronic temp.          300.0000000     K    :
          :  accuracy                    1.0000000          :
          :  -> integral cutoff          0.2500000E+02      :
          :  -> integral neglect         0.1000000E-07      :
          :  -> SCF convergence          0.1000000E-05 Eh   :
          :  -> wf. convergence          0.1000000E-03 e    :
          :  Broyden damping             0.4000000          :
          ...................................................

 iter      E             dE          RMSdq      gap      omega  full diag
   1    -39.8645754 -0.398646E+02  0.570E+00    1.93       0.0  T
   2    -39.9986889 -0.134113E+00  0.387E+00    1.68       1.0  T
   3    -39.9911609  0.752801E-02  0.165E+00    1.91       1.0  T
   4    -40.0179948 -0.268339E-01  0.686E-01    1.70       1.0  T
   5    -40.0254129 -0.741813E-02  0.252E-01    1.77       1.0  T
   6    -40.0257800 -0.367090E-03  0.123E-01    1.74       1.0  T
   7    -40.0259148 -0.134758E-03  0.599E-02    1.76       1.0  T
   8    -40.0259612 -0.464055E-04  0.137E-02    1.76       1.6  T
   9    -40.0259631 -0.197772E-05  0.526E-03    1.76       4.1  T
  10    -40.0259632 -0.742896E-07  0.231E-03    1.76       9.4  T
  11    -40.0259632 -0.112843E-07  0.122E-03    1.76      17.9  T
  12    -40.0259633 -0.359016E-07  0.333E-04    1.76      65.6  T
  13    -40.0259633 -0.129040E-08  0.189E-04    1.76     115.3  T

   *** convergence criteria satisfied after 13 iterations ***

         #    Occupation            Energy/Eh            Energy/eV
      -------------------------------------------------------------
         1        2.0000           -0.7604983             -20.6942
       ...           ...                  ...                  ...
        29        2.0000           -0.4505424             -12.2599
        30        2.0000           -0.4426090             -12.0440
        31        2.0000           -0.4381831             -11.9236
        32        2.0000           -0.4284458             -11.6586
        33        2.0000           -0.4226181             -11.5000
        34        2.0000           -0.4222342             -11.4896
        35        2.0000           -0.3999737             -10.8838 (HOMO)
        36                         -0.3354249              -9.1274 (LUMO)
        37                         -0.2210933              -6.0163
        38                         -0.1959485              -5.3320
        39                         -0.1804185              -4.9094
        40                         -0.1384935              -3.7686
       ...                                ...                  ...
        63                          0.6758082              18.3897
      -------------------------------------------------------------
                  HL-Gap            0.0645488 Eh            1.7565 eV
             Fermi-level           -0.3676993 Eh          -10.0056 eV

 SCC (total)                   0 d,  0 h,  0 min,  0.022 sec
 SCC setup                      ...        0 min,  0.000 sec (  0.888%)
 Dispersion                     ...        0 min,  0.000 sec (  0.902%)
 classical contributions        ...        0 min,  0.000 sec (  1.075%)
 integral evaluation            ...        0 min,  0.002 sec (  6.845%)
 iterations                     ...        0 min,  0.017 sec ( 76.002%)
 molecular gradient             ...        0 min,  0.003 sec ( 12.555%)
 printout                       ...        0 min,  0.000 sec (  1.636%)

         :::::::::::::::::::::::::::::::::::::::::::::::::::::
         ::                     SUMMARY                     ::
         :::::::::::::::::::::::::::::::::::::::::::::::::::::
         :: total energy             -39.522766703856 Eh    ::
         :: gradient norm              0.066808530250 Eh/a0 ::
         :: HOMO-LUMO gap              1.756462124692 eV    ::
         ::.................................................::
         :: SCC energy               -40.025963256386 Eh    ::
         :: -> isotropic ES            0.086846218044 Eh    ::
         :: -> anisotropic ES         -0.003636939754 Eh    ::
         :: -> anisotropic XC          0.012917594448 Eh    ::
         :: -> dispersion             -0.021148775621 Eh    ::
         :: repulsion energy           0.503155920463 Eh    ::
         :: add. restraining           0.000000000000 Eh    ::
         :: total charge               0.000000000000 e     ::
         :::::::::::::::::::::::::::::::::::::::::::::::::::::

      ----------------------------------------------------------- 
     |                   =====================                   |
     |                        A N C O P T                        |
     |                   =====================                   |
     |               Approximate Normal Coordinate               |
     |                Rational Function Optimizer                |
      ----------------------------------------------------------- 

          ...................................................
          :                      SETUP                      :
          :.................................................:
          :   optimization level         verytight          :
          :   max. optcycles                   420          :
          :   ANC micro-cycles                  20          :
          :   degrees of freedom                57          :
          :.................................................:
          :   RF solver                   davidson          :
          :   write xtbopt.log                true          :
          :   linear?                        false          :
          :   energy convergence         0.1000000E-06 Eh   :
          :   grad. convergence          0.2000000E-03 Eh/α :
          :   maxmium RF displ.          1.0000000          :
          :   Hlow (freq-cutoff)         0.1000000E-01      :
          :   Hmax (freq-cutoff)         5.0000000          :
          :   S6 in model hess.         20.0000000          :
          ...................................................

generating ANC from model Hessian ...
Using Lindh-Hessian (1995)
 Shifting diagonal of input Hessian by    6.4075942683262457E-003
 Lowest  eigenvalues of input Hessian
    0.000000    0.000000    0.000000    0.000000    0.000000    0.000000
    0.010000    0.011439    0.016511    0.021244    0.022793    0.026477
    0.027527    0.033008    0.045658    0.050075    0.059205    0.065438
 Highest eigenvalues
    1.869080    1.901177    1.910101    1.947027    2.035227    2.157024


........................................................................
.............................. CYCLE    1 ..............................
........................................................................

 iter      E             dE          RMSdq      gap      omega  full diag
   1    -40.0259633 -0.400260E+02  0.356E-05    1.76       0.0  T
   2    -40.0259633 -0.746780E-11  0.221E-05    1.76     987.0  T
   3    -40.0259633 -0.420641E-11  0.133E-05    1.76    1640.4  T
     SCC iter.                  ...        0 min,  0.004 sec
     gradient                   ...        0 min,  0.003 sec
 * total energy  :   -39.5227667 Eh     change       -0.6691891E-09 Eh
   gradient norm :     0.0668081 Eh/α   predicted     0.0000000E+00 (-100.00%)
   displ. norm   :     0.2328120 α      lambda       -0.1053995E-01
   maximum displ.:     0.1133888 α      in ANC's #23, #27, #24, ...

........................................................................
.............................. CYCLE    2 ..............................
........................................................................

 iter      E             dE          RMSdq      gap      omega  full diag
   1    -40.0447440 -0.400447E+02  0.352E-01    1.77       0.0  T
   2    -40.0448494 -0.105376E-03  0.208E-01    1.78       1.0  T
   3    -40.0447953  0.540858E-04  0.765E-02    1.77       1.0  T
   4    -40.0448730 -0.777048E-04  0.211E-02    1.78       1.0  T
   5    -40.0448800 -0.700891E-05  0.635E-03    1.78       3.4  T
   6    -40.0448800 -0.439066E-09  0.379E-03    1.78       5.8  T
   7    -40.0448802 -0.199170E-06  0.886E-04    1.78      24.6  T
   8    -40.0448802 -0.922451E-08  0.385E-04    1.78      56.6  T
     SCC iter.                  ...        0 min,  0.007 sec
     gradient                   ...        0 min,  0.003 sec
 * total energy  :   -39.5296337 Eh     change       -0.6866977E-02 Eh
   gradient norm :     0.0224664 Eh/α   predicted    -0.5555781E-02 ( -19.09%)
   displ. norm   :     0.1267236 α      lambda       -0.1647855E-02
   maximum displ.:     0.0764379 α      in ANC's #6, #23, #24, ...

........................................................................
.............................. CYCLE    3 ..............................
........................................................................

 iter      E             dE          RMSdq      gap      omega  full diag
   1    -40.0511645 -0.400512E+02  0.149E-01    1.79       0.0  T
   2    -40.0511811 -0.166779E-04  0.872E-02    1.79       1.0  T
   3    -40.0511727  0.840220E-05  0.306E-02    1.79       1.0  T
   4    -40.0511861 -0.133383E-04  0.633E-03    1.79       3.4  T
   5    -40.0511864 -0.353219E-06  0.307E-03    1.79       7.1  T
   6    -40.0511865 -0.196806E-07  0.129E-03    1.79      17.0  T
   7    -40.0511865 -0.204001E-07  0.635E-04    1.79      34.4  T
   8    -40.0511865 -0.512507E-08  0.321E-04    1.79      67.9  T
     SCC iter.                  ...        0 min,  0.008 sec
     gradient                   ...        0 min,  0.003 sec
 * total energy  :   -39.5305261 Eh     change       -0.8923777E-03 Eh
   gradient norm :     0.0066999 Eh/α   predicted    -0.8373770E-03 (  -6.16%)
   displ. norm   :     0.0409301 α      lambda       -0.1062172E-03
   maximum displ.:     0.0334910 α      in ANC's #6, #23, #10, ...

........................................................................
.............................. CYCLE    4 ..............................
........................................................................

 iter      E             dE          RMSdq      gap      omega  full diag
   1    -40.0513111 -0.400513E+02  0.257E-02    1.79       0.0  T
   2    -40.0513125 -0.135562E-05  0.165E-02    1.79       1.3  T
   3    -40.0513121  0.348398E-06  0.761E-03    1.79       2.9  T
   4    -40.0513125 -0.363267E-06  0.411E-03    1.79       5.3  T
   5    -40.0513128 -0.285229E-06  0.975E-04    1.79      22.4  T
   6    -40.0513128 -0.350037E-08  0.336E-04    1.79      64.9  T
     SCC iter.                  ...        0 min,  0.006 sec
     gradient                   ...        0 min,  0.003 sec
 * total energy  :   -39.5306033 Eh     change       -0.7726813E-04 Eh
   gradient norm :     0.0040231 Eh/α   predicted    -0.5321450E-04 ( -31.13%)
   displ. norm   :     0.0375459 α      lambda       -0.5433201E-04
   maximum displ.:     0.0310589 α      in ANC's #6, #10, #17, ...

........................................................................
.............................. CYCLE    5 ..............................
........................................................................

 iter      E             dE          RMSdq      gap      omega  full diag
   1    -40.0512324 -0.400512E+02  0.266E-02    1.79       0.0  T
   2    -40.0512341 -0.173534E-05  0.173E-02    1.79       1.3  T
   3    -40.0512340  0.124325E-06  0.808E-03    1.79       2.7  T
   4    -40.0512341 -0.164978E-06  0.421E-03    1.79       5.2  T
   5    -40.0512344 -0.263689E-06  0.121E-03    1.79      18.0  T
   6    -40.0512344 -0.943225E-08  0.504E-04    1.79      43.3  T
   7    -40.0512344 -0.465138E-08  0.202E-04    1.79     108.1  T
     SCC iter.                  ...        0 min,  0.006 sec
     gradient                   ...        0 min,  0.003 sec
 * total energy  :   -39.5306327 Eh     change       -0.2934990E-04 Eh
   gradient norm :     0.0015269 Eh/α   predicted    -0.2720777E-04 (  -7.30%)
   displ. norm   :     0.0068002 α      lambda       -0.2386877E-05
   maximum displ.:     0.0044966 α      in ANC's #6, #2, #15, ...

........................................................................
.............................. CYCLE    6 ..............................
........................................................................

 iter      E             dE          RMSdq      gap      omega  full diag
   1    -40.0513025 -0.400513E+02  0.680E-03    1.79       0.0  T
   2    -40.0513026 -0.934823E-07  0.380E-03    1.79       5.7  T
   3    -40.0513026  0.440266E-08  0.182E-03    1.79      12.0  T
   4    -40.0513026 -0.186517E-07  0.735E-04    1.79      29.7  T
   5    -40.0513026 -0.310729E-08  0.370E-04    1.79      59.0  T
     SCC iter.                  ...        0 min,  0.005 sec
     gradient                   ...        0 min,  0.003 sec
 * total energy  :   -39.5306347 Eh     change       -0.2011784E-05 Eh
   gradient norm :     0.0005294 Eh/α   predicted    -0.1196966E-05 ( -40.50%)
   displ. norm   :     0.0035070 α      lambda       -0.3972107E-06
   maximum displ.:     0.0016083 α      in ANC's #1, #2, #3, ...

........................................................................
.............................. CYCLE    7 ..............................
........................................................................

 iter      E             dE          RMSdq      gap      omega  full diag
   1    -40.0513241 -0.400513E+02  0.307E-03    1.79       0.0  T
   2    -40.0513241 -0.267429E-07  0.181E-03    1.79      12.0  T
   3    -40.0513241 -0.183596E-08  0.102E-03    1.79      21.3  T
   4    -40.0513241 -0.534425E-08  0.366E-04    1.79      59.6  T
   5    -40.0513241 -0.192214E-08  0.937E-05    1.79     233.0  T
     SCC iter.                  ...        0 min,  0.005 sec
     gradient                   ...        0 min,  0.003 sec
 * total energy  :   -39.5306350 Eh     change       -0.2937229E-06 Eh
   gradient norm :     0.0001415 Eh/α   predicted    -0.2040720E-06 ( -30.52%)
   displ. norm   :     0.0020474 α      lambda       -0.5097354E-07
   maximum displ.:     0.0011485 α      in ANC's #1, #2, #5, ...

........................................................................
.............................. CYCLE    8 ..............................
........................................................................

 iter      E             dE          RMSdq      gap      omega  full diag
   1    -40.0513070 -0.400513E+02  0.114E-03    1.79       0.0  T
   2    -40.0513070 -0.447770E-09  0.681E-04    1.79      32.0  T
   3    -40.0513070  0.193262E-08  0.307E-04    1.79      71.1  T
     SCC iter.                  ...        0 min,  0.004 sec
     gradient                   ...        0 min,  0.003 sec
 * total energy  :   -39.5306350 Eh     change       -0.4386287E-07 Eh
   gradient norm :     0.0000850 Eh/α   predicted    -0.2830285E-07 ( -35.47%)
   displ. norm   :     0.0030479 α      lambda       -0.3175630E-07
   maximum displ.:     0.0019542 α      in ANC's #1, #3, #2, ...

   *** GEOMETRY OPTIMIZATION CONVERGED AFTER 8 ITERATIONS ***

------------------------------------------------------------------------
 total energy gain   :        -0.0078683 Eh       -4.9374 kcal/mol
 total RMSD          :         0.0869113 a0        0.0460 Å
 total power (kW/mol):        -2.5822849 (step) -253.0984 (real)
------------------------------------------------------------------------

 ANCopt (total)                0 d,  0 h,  0 min,  0.082 sec
 optimizer setup                ...        0 min,  0.000 sec (  0.067%)
 model hessian                  ...        0 min,  0.003 sec (  3.556%)
 ANC generation                 ...        0 min,  0.001 sec (  0.765%)
 coordinate transformation      ...        0 min,  0.000 sec (  0.092%)
 single point calculation       ...        0 min,  0.075 sec ( 91.635%)
 optimization log               ...        0 min,  0.001 sec (  1.604%)
 hessian update                 ...        0 min,  0.000 sec (  0.097%)
 rational function              ...        0 min,  0.000 sec (  0.540%)

================
 final structure:
================
21
 xtb: 6.6.1 (8d0f1dd)
B            0.00004836905839       -1.16297427984143        0.00138520281965
N            1.24625619058332       -0.24078685386993       -0.00141104439043
C            2.51744494152920       -0.61895047880193       -0.00356439451676
C            3.35659901517029        0.50485222305123       -0.00294182198306
C            2.54014699393848        1.61218697346961        0.00009756118165
C            1.20525484728416        1.13835878446284        0.00085325513625
C           -0.00013532360207        1.82103644797762        0.00222034639473
C           -1.20544276671126        1.13821003626099        0.00033456763799
N           -1.24627101694267       -0.24093993124706       -0.00233285492954
C           -2.51741203466291       -0.61926302816474       -0.00542461647900
C           -3.35670550771448        0.50443463775745       -0.00497981663123
C           -2.54039277266754        1.61187092676076       -0.00108937941669
F           -0.00033134802387       -1.94491983831262        1.13421099322548
F            0.00052117240778       -1.95410185203215       -1.12477091197476
H            2.78202203497454       -1.65908578898422       -0.00556878772366
H            4.42829732991310        0.48379415948461       -0.00453318920921
H            2.83050844138590        2.64444327866033        0.00131695892819
H           -0.00020085123401        2.90064292402841        0.00425583663625
H           -2.78185738615337       -1.65943027965922       -0.00797871018741
H           -4.42839958146947        0.48324259436169       -0.00726190251285
H           -2.83088355436351        2.64409046543776        0.00033449259441

 Bond Distances (Angstroems)
 ---------------------------
B1-N2=1.5503         B1-N9=1.5503         B1-F13=1.3765        B1-F14=1.3763        N2-B1=1.5503         N2-C3=1.3262         
N2-C6=1.3798         C3-N2=1.3262         C3-C4=1.4025         C3-H15=1.0733        C4-C3=1.4025         C4-C5=1.3758         
C4-H16=1.0719        C5-C4=1.3758         C5-C6=1.4165         C5-H17=1.0723        C6-N2=1.3798         C6-C5=1.4165         
C6-C7=1.3853         C7-C6=1.3853         C7-C8=1.3853         C7-H18=1.0796        C8-C7=1.3853         C8-N9=1.3798         
C8-C12=1.4165        N9-B1=1.5503         N9-C8=1.3798         N9-C10=1.3262        C10-N9=1.3262        C10-C11=1.4025       
C10-H19=1.0733       C11-C10=1.4025       C11-C12=1.3758       C11-H20=1.0719       C12-C8=1.4165        C12-C11=1.3758       
C12-H21=1.0723       F13-B1=1.3765        F14-B1=1.3763        H15-C3=1.0733        H16-C4=1.0719        H17-C5=1.0723        
H18-C7=1.0796        H19-C10=1.0733       H20-C11=1.0719       H21-C12=1.0723       
 C  H  Rav=1.0735 sigma=0.0025  Rmin=1.0719  Rmax=1.0796     7
 C  C  Rav=1.3950 sigma=0.0157  Rmin=1.3758  Rmax=1.4165     8
 N  B  Rav=1.5503 sigma=0.0000  Rmin=1.5503  Rmax=1.5503     2
 N  C  Rav=1.3530 sigma=0.0268  Rmin=1.3262  Rmax=1.3798     4
 F  B  Rav=1.3764 sigma=0.0001  Rmin=1.3763  Rmax=1.3765     2

 selected bond angles (degree)
 --------------------
N9-B1-N2=107.00                F13-B1-N2=109.85               F13-B1-N9=109.85               F14-B1-N2=109.89               
F14-B1-N9=109.89               F14-B1-F13=110.30              C3-N2-B1=126.93                C6-N2-B1=124.80                
C6-N2-C3=108.27                C4-C3-N2=110.18                H15-C3-N2=120.84               H15-C3-C4=128.98               
C5-C4-C3=106.85                H16-C4-C3=125.62               H16-C4-C5=127.53               C6-C5-C4=106.86                
H17-C5-C4=127.89               H17-C5-C6=125.25               C5-C6-N2=107.84                C7-C6-N2=121.23                
C7-C6-C5=130.93                C8-C7-C6=120.94                H18-C7-C6=119.53               H18-C7-C8=119.53               
N9-C8-C7=121.23                C12-C8-C7=130.93               C12-C8-N9=107.84               C8-N9-B1=124.80                
C10-N9-B1=126.93               C10-N9-C8=108.27               C11-C10-N9=110.18              H19-C10-N9=120.84              
H19-C10-C11=128.98             

 selected dihedral angles (degree)
 ---------------------------------
C3-N2-B1-N9=180.21            C3-N2-B1-F13= 61.01           C3-N2-B1-F14=299.48           C6-N2-B1-N9=  0.36            
C6-N2-B1-F13=241.15           C6-N2-B1-F14=119.63           C4-C3-N2-B1=180.12            C4-C3-N2-C6=  0.00            
H15-C3-N2-B1=  0.13           H15-C3-N2-C6=180.00           C5-C4-C3-N2=  0.00            C5-C4-C3-H15=180.01           
H16-C4-C3-N2=180.01           H16-C4-C3-H15=  0.00          C6-C5-C4-C3=  0.00            C6-C5-C4-H16=179.98           
H17-C5-C4-C3=180.00           H17-C5-C4-H16=  0.00          C5-C6-N2-B1=179.87            C5-C6-N2-C3=  0.00            
C7-C6-N2-B1=359.82            C7-C6-N2-C3=179.94            N2-C6-C5-C4=  0.00            N2-C6-C5-H17=179.99           
C7-C6-C5-C4=180.07            C7-C6-C5-H17=  0.05           C8-C7-C6-N2=359.95            C8-C7-C6-C5=179.88            
H18-C7-C6-N2=179.98           H18-C7-C6-C5=359.92           N9-C8-C7-C6=  0.03            N9-C8-C7-H18=180.00           
C12-C8-C7-C6=180.12           C12-C8-C7-H18=  0.09          C8-N9-B1-N2=359.62            C8-N9-B1-F13=118.83           
C8-N9-B1-F14=240.35           C10-N9-B1-N2=179.79           C10-N9-B1-F13=299.00          C10-N9-B1-F14= 60.52          
B1-N9-C8-C7=  0.22            B1-N9-C8-C12=180.15           C10-N9-C8-C7=180.08           C10-N9-C8-C12=  0.00          
C11-C10-N9-B1=179.86          C11-C10-N9-C8=  0.00          H19-C10-N9-B1=359.85          H19-C10-N9-C8=179.99          
           -------------------------------------------------
          |                Final Singlepoint                |
           -------------------------------------------------

          ...................................................
          :                      SETUP                      :
          :.................................................:
          :  # basis functions                  63          :
          :  # atomic orbitals                  63          :
          :  # shells                           35          :
          :  # electrons                        70          :
          :  max. iterations                   250          :
          :  Hamiltonian                  GFN2-xTB          :
          :  restarted?                      false          :
          :  GBSA solvation                  false          :
          :  PC potential                    false          :
          :  electronic temp.          300.0000000     K    :
          :  accuracy                    1.0000000          :
          :  -> integral cutoff          0.2500000E+02      :
          :  -> integral neglect         0.1000000E-07      :
          :  -> SCF convergence          0.1000000E-05 Eh   :
          :  -> wf. convergence          0.1000000E-03 e    :
          :  Broyden damping             0.4000000          :
          ...................................................

 iter      E             dE          RMSdq      gap      omega  full diag
   1    -40.0513070 -0.400513E+02  0.827E-05    1.79       0.0  T
   2    -40.0513070  0.786358E-10  0.925E-05    1.79     235.8  T
   3    -40.0513070 -0.223253E-09  0.174E-05    1.79    1253.0  T

   *** convergence criteria satisfied after 3 iterations ***

         #    Occupation            Energy/Eh            Energy/eV
      -------------------------------------------------------------
         1        2.0000           -0.7666428             -20.8614
       ...           ...                  ...                  ...
        29        2.0000           -0.4548615             -12.3774
        30        2.0000           -0.4459890             -12.1360
        31        2.0000           -0.4437282             -12.0745
        32        2.0000           -0.4336710             -11.8008
        33        2.0000           -0.4263879             -11.6026
        34        2.0000           -0.4261758             -11.5968
        35        2.0000           -0.3983583             -10.8399 (HOMO)
        36                         -0.3325499              -9.0491 (LUMO)
        37                         -0.2169140              -5.9025
        38                         -0.1937077              -5.2711
        39                         -0.1792361              -4.8773
        40                         -0.1358544              -3.6968
       ...                                ...                  ...
        63                          0.6889916              18.7484
      -------------------------------------------------------------
                  HL-Gap            0.0658084 Eh            1.7907 eV
             Fermi-level           -0.3654541 Eh           -9.9445 eV

 SCC (total)                   0 d,  0 h,  0 min,  0.008 sec
 SCC setup                      ...        0 min,  0.000 sec (  0.845%)
 Dispersion                     ...        0 min,  0.000 sec (  1.076%)
 classical contributions        ...        0 min,  0.000 sec (  0.246%)
 integral evaluation            ...        0 min,  0.001 sec ( 13.399%)
 iterations                     ...        0 min,  0.004 sec ( 49.257%)
 molecular gradient             ...        0 min,  0.003 sec ( 33.943%)
 printout                       ...        0 min,  0.000 sec (  1.064%)

         :::::::::::::::::::::::::::::::::::::::::::::::::::::
         ::                     SUMMARY                     ::
         :::::::::::::::::::::::::::::::::::::::::::::::::::::
         :: total energy             -39.530635029021 Eh    ::
         :: gradient norm              0.000085926545 Eh/a0 ::
         :: HOMO-LUMO gap              1.790737892487 eV    ::
         ::.................................................::
         :: SCC energy               -40.051306964788 Eh    ::
         :: -> isotropic ES            0.083949681962 Eh    ::
         :: -> anisotropic ES         -0.002748273069 Eh    ::
         :: -> anisotropic XC          0.011218238439 Eh    ::
         :: -> dispersion             -0.021117095143 Eh    ::
         :: repulsion energy           0.520633543602 Eh    ::
         :: add. restraining           0.000000000000 Eh    ::
         :: total charge              -0.000000000000 e     ::
         :::::::::::::::::::::::::::::::::::::::::::::::::::::

           -------------------------------------------------
          |                Property Printout                |
           -------------------------------------------------

    * Orbital Energies and Occupations

         #    Occupation            Energy/Eh            Energy/eV
      -------------------------------------------------------------
         1        2.0000           -0.7666428             -20.8614
       ...           ...                  ...                  ...
        23        2.0000           -0.4915256             -13.3751
        24        2.0000           -0.4822019             -13.1214
        25        2.0000           -0.4771548             -12.9840
        26        2.0000           -0.4754800             -12.9385
        27        2.0000           -0.4686625             -12.7530
        28        2.0000           -0.4596336             -12.5073
        29        2.0000           -0.4548615             -12.3774
        30        2.0000           -0.4459890             -12.1360
        31        2.0000           -0.4437282             -12.0745
        32        2.0000           -0.4336710             -11.8008
        33        2.0000           -0.4263879             -11.6026
        34        2.0000           -0.4261758             -11.5968
        35        2.0000           -0.3983583             -10.8399 (HOMO)
        36                         -0.3325499              -9.0491 (LUMO)
        37                         -0.2169140              -5.9025
        38                         -0.1937077              -5.2711
        39                         -0.1792361              -4.8773
        40                         -0.1358544              -3.6968
        41                          0.0412041               1.1212
        42                          0.0442602               1.2044
        43                          0.0825898               2.2474
        44                          0.0957807               2.6063
        45                          0.1149797               3.1288
        46                          0.1327661               3.6127
       ...                                ...                  ...
        63                          0.6889916              18.7484
      -------------------------------------------------------------
                  HL-Gap            0.0658084 Eh            1.7907 eV
             Fermi-level           -0.3654541 Eh           -9.9445 eV

     #   Z          covCN         q      C6AA      α(0)
     1   5 B        3.111     0.522    14.272     6.301
     2   7 N        2.748    -0.092    23.041     7.129
     3   6 C        3.076     0.044    26.927     8.508
     4   6 C        3.035    -0.051    29.233     8.868
     5   6 C        3.036    -0.043    29.021     8.836
     6   6 C        3.133     0.049    26.703     8.459
     7   6 C        2.900    -0.018    28.451     8.746
     8   6 C        3.133     0.049    26.703     8.459
     9   7 N        2.748    -0.092    23.041     7.129
    10   6 C        3.076     0.044    26.927     8.508
    11   6 C        3.035    -0.051    29.233     8.868
    12   6 C        3.036    -0.043    29.021     8.836
    13   9 F        0.722    -0.369    13.148     4.282
    14   9 F        0.722    -0.369    13.146     4.282
    15   1 H        0.926     0.072     2.058     2.244
    16   1 H        0.926     0.051     2.313     2.378
    17   1 H        0.926     0.050     2.316     2.380
    18   1 H        0.926     0.073     2.050     2.239
    19   1 H        0.926     0.072     2.058     2.244
    20   1 H        0.926     0.051     2.313     2.378
    21   1 H        0.926     0.050     2.316     2.380

 Mol. C6AA /au·bohr⁶  :       6139.254763
 Mol. C8AA /au·bohr⁸  :     152046.070817
 Mol. α(0) /au        :        123.452685


Wiberg/Mayer (AO) data.
largest (>0.10) Wiberg bond orders for each atom

 ---------------------------------------------------------------------------
     #   Z sym  total        # sym  WBO       # sym  WBO       # sym  WBO
 ---------------------------------------------------------------------------
     1   5 B    3.388 --    14 F    0.874    13 F    0.874     9 N    0.794
                             2 N    0.794
     2   7 N    3.615 --     3 C    1.416     6 C    1.150     1 B    0.794
     3   6 C    3.930 --     2 N    1.416     4 C    1.329    15 H    0.966
     4   6 C    3.961 --     5 C    1.535     3 C    1.329    16 H    0.973
     5   6 C    3.954 --     4 C    1.535     6 C    1.248    17 H    0.972
     6   6 C    3.964 --     7 C    1.372     5 C    1.248     2 N    1.150
     7   6 C    3.986 --     6 C    1.372     8 C    1.372    18 H    0.962
     8   6 C    3.964 --     7 C    1.372    12 C    1.248     9 N    1.150
     9   7 N    3.615 --    10 C    1.416     8 C    1.150     1 B    0.794
    10   6 C    3.930 --     9 N    1.416    11 C    1.329    19 H    0.966
    11   6 C    3.961 --    12 C    1.535    10 C    1.329    20 H    0.973
    12   6 C    3.954 --    11 C    1.535     8 C    1.248    21 H    0.972
    13   9 F    0.973 --     1 B    0.874
    14   9 F    0.974 --     1 B    0.874
    15   1 H    0.994 --     3 C    0.966
    16   1 H    0.997 --     4 C    0.973
    17   1 H    0.997 --     5 C    0.972
    18   1 H    0.994 --     7 C    0.962
    19   1 H    0.994 --    10 C    0.966
    20   1 H    0.997 --    11 C    0.973
    21   1 H    0.997 --    12 C    0.972
 ---------------------------------------------------------------------------

Topologies differ in total number of bonds
Writing topology from bond orders to xtbtopo.mol

molecular dipole:
                 x           y           z       tot (Debye)
 q only:       -0.000       1.886      -0.007
   full:       -0.000       1.976      -0.007       5.022
molecular quadrupole (traceless):
                xx          xy          yy          xz          yz          zz
 q only:       11.978       0.001      -4.843       0.007       0.028      -7.135
  q+dip:       14.799       0.001      -2.493       0.009       0.039     -12.306
   full:       12.857       0.001      -4.426       0.008       0.030      -8.431

           -------------------------------------------------
          |                Geometry Summary                 |
           -------------------------------------------------

      molecular mass/u    :      191.9734491
   center of mass at/Å    :       -0.0000225      -0.0120980      -0.0002698
  moments of inertia/u·Å² :        0.3864059E+03   0.7760699E+03   0.1065523E+04
rotational constants/cm⁻¹ :        0.4362674E-01   0.2172180E-01   0.1582100E-01

 * 23 selected distances

     #   Z          #   Z                                           value/Å
     1   5 B        2   7 N                                       1.5503135
     2   7 N        3   6 C                                       1.3262479
     3   6 C        4   6 C                                       1.4025380
     4   6 C        5   6 C                                       1.3757884
     2   7 N        6   6 C                                       1.3797570
     5   6 C        6   6 C                                       1.4164925
     6   6 C        7   6 C                                       1.3852857
     7   6 C        8   6 C                                       1.3852876
     1   5 B        9   7 N                                       1.5503140 (max)
     8   6 C        9   7 N                                       1.3797569
     9   7 N       10   6 C                                       1.3262495
    10   6 C       11   6 C                                       1.4025372
     8   6 C       12   6 C                                       1.4164916
    11   6 C       12   6 C                                       1.3757896
     1   5 B       13   9 F                                       1.3764932
     1   5 B       14   9 F                                       1.3762671
     3   6 C       15   1 H                                       1.0732599
     4   6 C       16   1 H                                       1.0719065
     5   6 C       17   1 H                                       1.0723174
     7   6 C       18   1 H                                       1.0796085
    10   6 C       19   1 H                                       1.0732595
    11   6 C       20   1 H                                       1.0719061 (min)
    12   6 C       21   1 H                                       1.0723173

 * 5 distinct bonds (by element types)

   Z      Z             #   av. dist./Å        max./Å        min./Å
   1 H    6 C           7     1.0735107     1.0796085     1.0719061
   6 C    6 C           8     1.3950263     1.4164925     1.3757884
   5 B    7 N           2     1.5503138     1.5503140     1.5503135
   6 C    7 N           4     1.3530028     1.3797570     1.3262479
   5 B    9 F           2     1.3763801     1.3764932     1.3762671


optimized geometry written to: xtbopt.xyz


           -------------------------------------------------
          | TOTAL ENERGY              -39.530635029021 Eh   |
          | GRADIENT NORM               0.000085926545 Eh/α |
          | HOMO-LUMO GAP               1.790737892487 eV   |
           -------------------------------------------------

------------------------------------------------------------------------
 * finished run on 2024/05/20 at 01:53:54.493     
------------------------------------------------------------------------
 total:
 * wall-time:     0 d,  0 h,  0 min,  0.122 sec
 *  cpu-time:     0 d,  0 h,  0 min,  0.824 sec
 * ratio c/w:     6.740 speedup
 SCF:
 * wall-time:     0 d,  0 h,  0 min,  0.022 sec
 *  cpu-time:     0 d,  0 h,  0 min,  0.145 sec
 * ratio c/w:     6.580 speedup
 ANC optimizer:
 * wall-time:     0 d,  0 h,  0 min,  0.090 sec
 *  cpu-time:     0 d,  0 h,  0 min,  0.639 sec
 * ratio c/w:     7.075 speedup

