      -----------------------------------------------------------      
     |                   =====================                   |     
     |                           x T B                           |     
     |                   =====================                   |     
     |                         S. Grimme                         |     
     |          Mulliken Center for Theoretical Chemistry        |     
     |                    University of Bonn                     |     
      -----------------------------------------------------------      

   * xtb version 6.6.1 (8d0f1dd) compiled by 'conda@1efc2f54142f' on 2023-08-01

   xtb is free software: you can redistribute it and/or modify it under
   the terms of the GNU Lesser General Public License as published by
   the Free Software Foundation, either version 3 of the License, or
   (at your option) any later version.
   
   xtb is distributed in the hope that it will be useful,
   but WITHOUT ANY WARRANTY; without even the implied warranty of
   MERCHANTABILITY or FITNESS FOR A PARTICULAR PURPOSE.  See the
   GNU Lesser General Public License for more details.
   
   Cite this work as:
   * C. Bannwarth, E. Caldeweyher, S. Ehlert, A. Hansen, P. Pracht,
     J. Seibert, S. Spicher, S. Grimme, WIREs Comput. Mol. Sci., 2020, 11,
     e01493. DOI: 10.1002/wcms.1493
   
   for GFN2-xTB:
   * C. Bannwarth, S. Ehlert and S. Grimme., J. Chem. Theory Comput., 2019,
     15, 1652-1671. DOI: 10.1021/acs.jctc.8b01176
   for GFN1-xTB:
   * S. Grimme, C. Bannwarth, P. Shushkov, J. Chem. Theory Comput., 2017,
     13, 1989-2009. DOI: 10.1021/acs.jctc.7b00118
   for GFN0-xTB:
   * P. Pracht, E. Caldeweyher, S. Ehlert, S. Grimme, ChemRxiv, 2019, preprint.
     DOI: 10.26434/chemrxiv.8326202.v1
   for GFN-FF:
   * S. Spicher and S. Grimme, Angew. Chem. Int. Ed., 2020, 59, 15665-15673.
     DOI: 10.1002/anie.202004239
   
   for ALPB and GBSA implicit solvation:
   * S. Ehlert, M. Stahn, S. Spicher, S. Grimme, J. Chem. Theory Comput.,
     2021, 17, 4250-4261. DOI: 10.1021/acs.jctc.1c00471
   
   for DFT-D4:
   * E. Caldeweyher, C. Bannwarth and S. Grimme, J. Chem. Phys., 2017,
     147, 034112. DOI: 10.1063/1.4993215
   * E. Caldeweyher, S. Ehlert, A. Hansen, H. Neugebauer, S. Spicher,
     C. Bannwarth and S. Grimme, J. Chem. Phys., 2019, 150, 154122.
     DOI: 10.1063/1.5090222
   * E. Caldeweyher, J.-M. Mewes, S. Ehlert and S. Grimme, Phys. Chem. Chem. Phys.
     2020, 22, 8499-8512. DOI: 10.1039/D0CP00502A
   
   for sTDA-xTB:
   * S. Grimme and C. Bannwarth, J. Chem. Phys., 2016, 145, 054103.
     DOI: 10.1063/1.4959605
   
   in the mass-spec context:
   * V. Asgeirsson, C. Bauer and S. Grimme, Chem. Sci., 2017, 8, 4879.
     DOI: 10.1039/c7sc00601b
   * J. Koopman and S. Grimme, ACS Omega 2019, 4, 12, 15120-15133.
     DOI: 10.1021/acsomega.9b02011
   
   for metadynamics refer to:
   * S. Grimme, J. Chem. Theory Comput., 2019, 155, 2847-2862
     DOI: 10.1021/acs.jctc.9b00143
   
   for SPH calculations refer to:
   * S. Spicher and S. Grimme, J. Chem. Theory Comput., 2021, 17, 1701-1714
     DOI: 10.1021/acs.jctc.0c01306
   
   with help from (in alphabetical order)
   P. Atkinson, C. Bannwarth, F. Bohle, G. Brandenburg, E. Caldeweyher
   M. Checinski, S. Dohm, S. Ehlert, S. Ehrlich, I. Gerasimov, C. Hölzer
   A. Katbashev, J. Koopman, C. Lavigne, S. Lehtola, F. März, M. Müller,
   F. Musil, H. Neugebauer, J. Pisarek, C. Plett, P. Pracht, F. Pultar,
   J. Seibert, P. Shushkov, S. Spicher, M. Stahn, M. Steiner, T. Strunk,
   J. Stückrath, T. Rose, and J. Unsleber
   
 * started run on 2024/05/20 at 05:00:29.335     

           -------------------------------------------------
          |                Calculation Setup                |
           -------------------------------------------------

          program call               : xtb crest_best.xyz --gfn 2 --opt vtight --parallel 4
          coordinate file            : crest_best.xyz
          omp threads                :                     4

   ID    Z sym.   atoms
    1    5 B      1
    2    7 N      2, 9
    3    6 C      3-8, 10-12
    4    9 F      13, 14
    5    1 H      15-21

           -------------------------------------------------
          |                 G F N 2 - x T B                 |
           -------------------------------------------------

        Reference                      10.1021/acs.jctc.8b01176
      * Hamiltonian:
        H0-scaling (s, p, d)           1.850000    2.230000    2.230000
        zeta-weighting                 0.500000
      * Dispersion:
        s8                             2.700000
        a1                             0.520000
        a2                             5.000000
        s9                             5.000000
      * Repulsion:
        kExp                           1.500000    1.000000
        rExp                           1.000000
      * Coulomb:
        alpha                          2.000000
        third order                    shell-resolved
        anisotropic                    true
        a3                             3.000000
        a5                             4.000000
        cn-shift                       1.200000
        cn-exp                         4.000000
        max-rad                        5.000000


          ...................................................
          :                      SETUP                      :
          :.................................................:
          :  # basis functions                  63          :
          :  # atomic orbitals                  63          :
          :  # shells                           35          :
          :  # electrons                        70          :
          :  max. iterations                   250          :
          :  Hamiltonian                  GFN2-xTB          :
          :  restarted?                      false          :
          :  GBSA solvation                  false          :
          :  PC potential                    false          :
          :  electronic temp.          300.0000000     K    :
          :  accuracy                    1.0000000          :
          :  -> integral cutoff          0.2500000E+02      :
          :  -> integral neglect         0.1000000E-07      :
          :  -> SCF convergence          0.1000000E-05 Eh   :
          :  -> wf. convergence          0.1000000E-03 e    :
          :  Broyden damping             0.4000000          :
          ...................................................

 iter      E             dE          RMSdq      gap      omega  full diag
   1    -39.8644947 -0.398645E+02  0.570E+00    1.93       0.0  T
   2    -39.9986437 -0.134149E+00  0.387E+00    1.68       1.0  T
   3    -39.9911144  0.752935E-02  0.165E+00    1.91       1.0  T
   4    -40.0179424 -0.268280E-01  0.686E-01    1.70       1.0  T
   5    -40.0253789 -0.743656E-02  0.252E-01    1.77       1.0  T
   6    -40.0257457 -0.366800E-03  0.123E-01    1.74       1.0  T
   7    -40.0258804 -0.134679E-03  0.600E-02    1.76       1.0  T
   8    -40.0259269 -0.464537E-04  0.138E-02    1.76       1.6  T
   9    -40.0259289 -0.200243E-05  0.536E-03    1.76       4.1  T
  10    -40.0259289 -0.505378E-07  0.264E-03    1.76       8.3  T
  11    -40.0259290 -0.604828E-07  0.169E-03    1.76      12.9  T
  12    -40.0259290 -0.287399E-07  0.535E-04    1.76      40.8  T
  13    -40.0259290 -0.574629E-08  0.170E-04    1.76     128.2  T

   *** convergence criteria satisfied after 13 iterations ***

         #    Occupation            Energy/Eh            Energy/eV
      -------------------------------------------------------------
         1        2.0000           -0.7605893             -20.6967
       ...           ...                  ...                  ...
        29        2.0000           -0.4506198             -12.2620
        30        2.0000           -0.4426987             -12.0464
        31        2.0000           -0.4382212             -11.9246
        32        2.0000           -0.4284599             -11.6590
        33        2.0000           -0.4225870             -11.4992
        34        2.0000           -0.4222108             -11.4889
        35        2.0000           -0.3999556             -10.8833 (HOMO)
        36                         -0.3354057              -9.1269 (LUMO)
        37                         -0.2210170              -6.0142
        38                         -0.1959192              -5.3312
        39                         -0.1804509              -4.9103
        40                         -0.1385022              -3.7688
       ...                                ...                  ...
        63                          0.6754982              18.3812
      -------------------------------------------------------------
                  HL-Gap            0.0645499 Eh            1.7565 eV
             Fermi-level           -0.3676806 Eh          -10.0051 eV

 SCC (total)                   0 d,  0 h,  0 min,  0.022 sec
 SCC setup                      ...        0 min,  0.000 sec (  1.702%)
 Dispersion                     ...        0 min,  0.000 sec (  0.946%)
 classical contributions        ...        0 min,  0.000 sec (  1.094%)
 integral evaluation            ...        0 min,  0.002 sec (  6.956%)
 iterations                     ...        0 min,  0.014 sec ( 66.106%)
 molecular gradient             ...        0 min,  0.004 sec ( 19.517%)
 printout                       ...        0 min,  0.001 sec (  3.459%)

         :::::::::::::::::::::::::::::::::::::::::::::::::::::
         ::                     SUMMARY                     ::
         :::::::::::::::::::::::::::::::::::::::::::::::::::::
         :: total energy             -39.522798918434 Eh    ::
         :: gradient norm              0.066522605936 Eh/a0 ::
         :: HOMO-LUMO gap              1.756493050246 eV    ::
         ::.................................................::
         :: SCC energy               -40.025929029686 Eh    ::
         :: -> isotropic ES            0.086805514732 Eh    ::
         :: -> anisotropic ES         -0.003631228970 Eh    ::
         :: -> anisotropic XC          0.012918946734 Eh    ::
         :: -> dispersion             -0.021149285186 Eh    ::
         :: repulsion energy           0.503089525390 Eh    ::
         :: add. restraining           0.000000000000 Eh    ::
         :: total charge               0.000000000000 e     ::
         :::::::::::::::::::::::::::::::::::::::::::::::::::::

      ----------------------------------------------------------- 
     |                   =====================                   |
     |                        A N C O P T                        |
     |                   =====================                   |
     |               Approximate Normal Coordinate               |
     |                Rational Function Optimizer                |
      ----------------------------------------------------------- 

          ...................................................
          :                      SETUP                      :
          :.................................................:
          :   optimization level         verytight          :
          :   max. optcycles                   420          :
          :   ANC micro-cycles                  20          :
          :   degrees of freedom                57          :
          :.................................................:
          :   RF solver                   davidson          :
          :   write xtbopt.log                true          :
          :   linear?                        false          :
          :   energy convergence         0.1000000E-06 Eh   :
          :   grad. convergence          0.2000000E-03 Eh/α :
          :   maxmium RF displ.          1.0000000          :
          :   Hlow (freq-cutoff)         0.1000000E-01      :
          :   Hmax (freq-cutoff)         5.0000000          :
          :   S6 in model hess.         20.0000000          :
          ...................................................

generating ANC from model Hessian ...
Using Lindh-Hessian (1995)
 Shifting diagonal of input Hessian by    6.4076145360774028E-003
 Lowest  eigenvalues of input Hessian
    0.000000    0.000000    0.000000    0.000000    0.000000    0.000000
    0.010000    0.011440    0.016518    0.021235    0.022791    0.026470
    0.027525    0.033008    0.045675    0.050062    0.059229    0.065451
 Highest eigenvalues
    1.868806    1.901344    1.909824    1.947166    2.035649    2.157000


........................................................................
.............................. CYCLE    1 ..............................
........................................................................

 iter      E             dE          RMSdq      gap      omega  full diag
   1    -40.0259290 -0.400259E+02  0.354E-05    1.76       0.0  T
   2    -40.0259290 -0.806466E-11  0.212E-05    1.76    1031.1  T
   3    -40.0259290 -0.355271E-11  0.122E-05    1.76    1784.2  T
     SCC iter.                  ...        0 min,  0.007 sec
     gradient                   ...        0 min,  0.003 sec
 * total energy  :   -39.5227989 Eh     change       -0.4083702E-09 Eh
   gradient norm :     0.0665221 Eh/α   predicted     0.0000000E+00 (-100.00%)
   displ. norm   :     0.2331879 α      lambda       -0.1050177E-01
   maximum displ.:     0.1127270 α      in ANC's #23, #27, #24, ...

........................................................................
.............................. CYCLE    2 ..............................
........................................................................

 iter      E             dE          RMSdq      gap      omega  full diag
   1    -40.0447540 -0.400448E+02  0.352E-01    1.77       0.0  T
   2    -40.0448576 -0.103539E-03  0.207E-01    1.78       1.0  T
   3    -40.0448038  0.537681E-04  0.758E-02    1.77       1.0  T
   4    -40.0448807 -0.768859E-04  0.210E-02    1.78       1.0  T
   5    -40.0448876 -0.695574E-05  0.634E-03    1.78       3.4  T
   6    -40.0448876  0.385420E-09  0.378E-03    1.78       5.8  T
   7    -40.0448878 -0.197370E-06  0.890E-04    1.78      24.5  T
   8    -40.0448879 -0.928131E-08  0.403E-04    1.78      54.1  T
     SCC iter.                  ...        0 min,  0.010 sec
     gradient                   ...        0 min,  0.003 sec
 * total energy  :   -39.5296390 Eh     change       -0.6840069E-02 Eh
   gradient norm :     0.0223152 Eh/α   predicted    -0.5536572E-02 ( -19.06%)
   displ. norm   :     0.1271066 α      lambda       -0.1638451E-02
   maximum displ.:     0.0773889 α      in ANC's #6, #23, #24, ...

........................................................................
.............................. CYCLE    3 ..............................
........................................................................

 iter      E             dE          RMSdq      gap      omega  full diag
   1    -40.0511691 -0.400512E+02  0.149E-01    1.79       0.0  T
   2    -40.0511853 -0.161369E-04  0.869E-02    1.79       1.0  T
   3    -40.0511771  0.813898E-05  0.300E-02    1.79       1.0  T
   4    -40.0511900 -0.129058E-04  0.623E-03    1.79       3.5  T
   5    -40.0511904 -0.335954E-06  0.306E-03    1.79       7.1  T
   6    -40.0511904 -0.165750E-07  0.136E-03    1.79      16.0  T
   7    -40.0511904 -0.253849E-07  0.656E-04    1.79      33.3  T
   8    -40.0511904 -0.582036E-08  0.313E-04    1.79      69.7  T
     SCC iter.                  ...        0 min,  0.008 sec
     gradient                   ...        0 min,  0.004 sec
 * total energy  :   -39.5305270 Eh     change       -0.8880370E-03 Eh
   gradient norm :     0.0066424 Eh/α   predicted    -0.8326782E-03 (  -6.23%)
   displ. norm   :     0.0411209 α      lambda       -0.1060569E-03
   maximum displ.:     0.0338438 α      in ANC's #6, #23, #10, ...

........................................................................
.............................. CYCLE    4 ..............................
........................................................................

 iter      E             dE          RMSdq      gap      omega  full diag
   1    -40.0513145 -0.400513E+02  0.257E-02    1.79       0.0  T
   2    -40.0513159 -0.134381E-05  0.165E-02    1.79       1.3  T
   3    -40.0513155  0.350221E-06  0.759E-03    1.79       2.9  T
   4    -40.0513159 -0.366287E-06  0.408E-03    1.79       5.4  T
   5    -40.0513162 -0.281266E-06  0.962E-04    1.79      22.7  T
   6    -40.0513162 -0.375976E-08  0.307E-04    1.79      71.0  T
     SCC iter.                  ...        0 min,  0.007 sec
     gradient                   ...        0 min,  0.003 sec
 * total energy  :   -39.5306040 Eh     change       -0.7699149E-04 Eh
   gradient norm :     0.0039773 Eh/α   predicted    -0.5313431E-04 ( -30.99%)
   displ. norm   :     0.0371065 α      lambda       -0.5336952E-04
   maximum displ.:     0.0310070 α      in ANC's #6, #10, #17, ...

........................................................................
.............................. CYCLE    5 ..............................
........................................................................

 iter      E             dE          RMSdq      gap      omega  full diag
   1    -40.0512329 -0.400512E+02  0.263E-02    1.79       0.0  T
   2    -40.0512346 -0.168603E-05  0.171E-02    1.79       1.3  T
   3    -40.0512345  0.123555E-06  0.799E-03    1.79       2.7  T
   4    -40.0512346 -0.167303E-06  0.413E-03    1.79       5.3  T
   5    -40.0512349 -0.253928E-06  0.116E-03    1.79      18.7  T
   6    -40.0512349 -0.969618E-08  0.414E-04    1.79      52.7  T
   7    -40.0512349 -0.311226E-08  0.132E-04    1.79     165.3  T
     SCC iter.                  ...        0 min,  0.009 sec
     gradient                   ...        0 min,  0.003 sec
 * total energy  :   -39.5306329 Eh     change       -0.2884291E-04 Eh
   gradient norm :     0.0015208 Eh/α   predicted    -0.2672513E-04 (  -7.34%)
   displ. norm   :     0.0063243 α      lambda       -0.2344328E-05
   maximum displ.:     0.0044958 α      in ANC's #6, #15, #30, ...

........................................................................
.............................. CYCLE    6 ..............................
........................................................................

 iter      E             dE          RMSdq      gap      omega  full diag
   1    -40.0513021 -0.400513E+02  0.665E-03    1.79       0.0  T
   2    -40.0513022 -0.917086E-07  0.372E-03    1.79       5.9  T
   3    -40.0513022  0.442324E-08  0.180E-03    1.79      12.1  T
   4    -40.0513022 -0.174289E-07  0.755E-04    1.79      28.9  T
   5    -40.0513022 -0.305984E-08  0.419E-04    1.79      52.1  T
     SCC iter.                  ...        0 min,  0.009 sec
     gradient                   ...        0 min,  0.003 sec
 * total energy  :   -39.5306348 Eh     change       -0.1970405E-05 Eh
   gradient norm :     0.0005286 Eh/α   predicted    -0.1175556E-05 ( -40.34%)
   displ. norm   :     0.0026300 α      lambda       -0.3734422E-06
   maximum displ.:     0.0010731 α      in ANC's #10, #6, #3, ...

........................................................................
.............................. CYCLE    7 ..............................
........................................................................

 iter      E             dE          RMSdq      gap      omega  full diag
   1    -40.0513226 -0.400513E+02  0.280E-03    1.79       0.0  T
   2    -40.0513226 -0.261549E-07  0.167E-03    1.79      13.1  T
   3    -40.0513226 -0.381905E-08  0.948E-04    1.79      23.0  T
   4    -40.0513226 -0.389080E-08  0.360E-04    1.79      60.5  T
     SCC iter.                  ...        0 min,  0.004 sec
     gradient                   ...        0 min,  0.003 sec
 * total energy  :   -39.5306351 Eh     change       -0.2713721E-06 Eh
   gradient norm :     0.0001332 Eh/α   predicted    -0.1917114E-06 ( -29.35%)
   displ. norm   :     0.0016934 α      lambda       -0.3251421E-07
   maximum displ.:     0.0012003 α      in ANC's #3, #1, #6, ...

........................................................................
.............................. CYCLE    8 ..............................
........................................................................

 iter      E             dE          RMSdq      gap      omega  full diag
   1    -40.0513043 -0.400513E+02  0.103E-03    1.79       0.0  T
   2    -40.0513043 -0.142890E-09  0.618E-04    1.79      35.3  T
   3    -40.0513043  0.263366E-08  0.330E-04    1.79      66.0  T
     SCC iter.                  ...        0 min,  0.006 sec
     gradient                   ...        0 min,  0.003 sec
 * total energy  :   -39.5306351 Eh     change       -0.3050991E-07 Eh
   gradient norm :     0.0000798 Eh/α   predicted    -0.2071775E-07 ( -32.10%)
   displ. norm   :     0.0018008 α      lambda       -0.1880192E-07
   maximum displ.:     0.0011096 α      in ANC's #3, #1, #5, ...

   *** GEOMETRY OPTIMIZATION CONVERGED AFTER 8 ITERATIONS ***

------------------------------------------------------------------------
 total energy gain   :        -0.0078362 Eh       -4.9173 kcal/mol
 total RMSD          :         0.0871130 a0        0.0461 Å
 total power (kW/mol):        -2.5717470 (step) -178.9808 (real)
------------------------------------------------------------------------

 ANCopt (total)                0 d,  0 h,  0 min,  0.115 sec
 optimizer setup                ...        0 min,  0.000 sec (  0.163%)
 model hessian                  ...        0 min,  0.004 sec (  3.215%)
 ANC generation                 ...        0 min,  0.001 sec (  0.705%)
 coordinate transformation      ...        0 min,  0.001 sec (  0.559%)
 single point calculation       ...        0 min,  0.101 sec ( 87.622%)
 optimization log               ...        0 min,  0.004 sec (  3.808%)
 hessian update                 ...        0 min,  0.000 sec (  0.223%)
 rational function              ...        0 min,  0.001 sec (  1.048%)

================
 final structure:
================
21
 xtb: 6.6.1 (8d0f1dd)
B            0.00024132476764       -1.16313373080737        0.00071169801202
N           -1.24616742146356       -0.24123043617614       -0.00141005427832
C           -2.51727988566624       -0.61967335239375       -0.00358300150580
C           -3.35667329342178        0.50394676489045       -0.00275148728733
C           -2.54046183292744        1.61146296092497        0.00012621329160
C           -1.20546967111784        1.13793393103936        0.00101847440729
C           -0.00023303719335        1.82087499463651        0.00271151547501
C            1.20522501537624        1.13831388724572        0.00129156469833
N            1.24636048471134       -0.24083364247303       -0.00127364856041
C            2.51759654595322       -0.61887315415810       -0.00312472372649
C            3.35662909086767        0.50501327335825       -0.00191064352925
C            2.54006270070595        1.61227085536077        0.00082368895843
F            0.00040145317085       -1.95268642523818       -1.12658080696173
F            0.00032841478617       -1.94670476161466        1.13239365096019
H           -2.78161159138707       -1.65987014374517       -0.00562466572329
H           -4.42836846155125        0.48264739439409       -0.00418529206460
H           -2.83105119567350        2.64365537578165        0.00144323897695
H           -0.00040157617508        2.90048432186384        0.00450292556114
H            2.78225927612136       -1.65898502717648       -0.00522926545716
H            4.42833071394687        0.48405762492600       -0.00302106018183
H            2.83032306956979        2.64455554176127        0.00233535883527

 Bond Distances (Angstroems)
 ---------------------------
B1-N2=1.5503         B1-N9=1.5503         B1-F13=1.3763        B1-F14=1.3765        N2-B1=1.5503         N2-C3=1.3263         
N2-C6=1.3798         C3-N2=1.3263         C3-C4=1.4025         C3-H15=1.0733        C4-C3=1.4025         C4-C5=1.3758         
C4-H16=1.0719        C5-C4=1.3758         C5-C6=1.4165         C5-H17=1.0723        C6-N2=1.3798         C6-C5=1.4165         
C6-C7=1.3853         C7-C6=1.3853         C7-C8=1.3853         C7-H18=1.0796        C8-C7=1.3853         C8-N9=1.3798         
C8-C12=1.4165        N9-B1=1.5503         N9-C8=1.3798         N9-C10=1.3263        C10-N9=1.3263        C10-C11=1.4025       
C10-H19=1.0733       C11-C10=1.4025       C11-C12=1.3758       C11-H20=1.0719       C12-C8=1.4165        C12-C11=1.3758       
C12-H21=1.0723       F13-B1=1.3763        F14-B1=1.3765        H15-C3=1.0733        H16-C4=1.0719        H17-C5=1.0723        
H18-C7=1.0796        H19-C10=1.0733       H20-C11=1.0719       H21-C12=1.0723       
 C  H  Rav=1.0735 sigma=0.0025  Rmin=1.0719  Rmax=1.0796     7
 C  C  Rav=1.3950 sigma=0.0157  Rmin=1.3758  Rmax=1.4165     8
 N  B  Rav=1.5503 sigma=0.0000  Rmin=1.5503  Rmax=1.5503     2
 N  C  Rav=1.3530 sigma=0.0268  Rmin=1.3263  Rmax=1.3798     4
 F  B  Rav=1.3764 sigma=0.0001  Rmin=1.3763  Rmax=1.3765     2

 selected bond angles (degree)
 --------------------
N9-B1-N2=107.00                F13-B1-N2=109.88               F13-B1-N9=109.89               F14-B1-N2=109.86               
F14-B1-N9=109.86               F14-B1-F13=110.29              C3-N2-B1=126.93                C6-N2-B1=124.80                
C6-N2-C3=108.27                C4-C3-N2=110.18                H15-C3-N2=120.84               H15-C3-C4=128.98               
C5-C4-C3=106.85                H16-C4-C3=125.62               H16-C4-C5=127.53               C6-C5-C4=106.86                
H17-C5-C4=127.89               H17-C5-C6=125.25               C5-C6-N2=107.84                C7-C6-N2=121.23                
C7-C6-C5=130.93                C8-C7-C6=120.94                H18-C7-C6=119.53               H18-C7-C8=119.53               
N9-C8-C7=121.23                C12-C8-C7=130.93               C12-C8-N9=107.84               C8-N9-B1=124.80                
C10-N9-B1=126.93               C10-N9-C8=108.27               C11-C10-N9=110.18              H19-C10-N9=120.84              
H19-C10-C11=128.98             

 selected dihedral angles (degree)
 ---------------------------------
C3-N2-B1-N9=179.84            C3-N2-B1-F13= 60.58           C3-N2-B1-F14=299.06           C6-N2-B1-N9=359.72            
C6-N2-B1-F13=240.46           C6-N2-B1-F14=118.94           C4-C3-N2-B1=179.90            C4-C3-N2-C6=  0.00            
H15-C3-N2-B1=359.90           H15-C3-N2-C6=180.00           C5-C4-C3-N2=  0.00            C5-C4-C3-H15=180.00           
H16-C4-C3-N2=179.99           H16-C4-C3-H15=  0.00          C6-C5-C4-C3=  0.00            C6-C5-C4-H16=180.00           
H17-C5-C4-C3=180.00           H17-C5-C4-H16=  0.00          C5-C6-N2-B1=180.10            C5-C6-N2-C3=  0.00            
C7-C6-N2-B1=  0.14            C7-C6-N2-C3=180.04            N2-C6-C5-C4=  0.00            N2-C6-C5-H17=180.01           
C7-C6-C5-C4=179.95            C7-C6-C5-H17=359.95           C8-C7-C6-N2=  0.03            C8-C7-C6-C5=180.10            
H18-C7-C6-N2=179.99           H18-C7-C6-C5=  0.06           N9-C8-C7-C6=359.97            N9-C8-C7-H18=180.01           
C12-C8-C7-C6=179.91           C12-C8-C7-H18=359.95          C8-N9-B1-N2=  0.29            C8-N9-B1-F13=119.55           
C8-N9-B1-F14=241.07           C10-N9-B1-N2=180.15           C10-N9-B1-F13=299.41          C10-N9-B1-F14= 60.93          
B1-N9-C8-C7=359.84            B1-N9-C8-C12=179.89           C10-N9-C8-C7=179.96           C10-N9-C8-C12=  0.00          
C11-C10-N9-B1=180.11          C11-C10-N9-C8=  0.00          H19-C10-N9-B1=  0.11          H19-C10-N9-C8=180.00          
           -------------------------------------------------
          |                Final Singlepoint                |
           -------------------------------------------------

          ...................................................
          :                      SETUP                      :
          :.................................................:
          :  # basis functions                  63          :
          :  # atomic orbitals                  63          :
          :  # shells                           35          :
          :  # electrons                        70          :
          :  max. iterations                   250          :
          :  Hamiltonian                  GFN2-xTB          :
          :  restarted?                      false          :
          :  GBSA solvation                  false          :
          :  PC potential                    false          :
          :  electronic temp.          300.0000000     K    :
          :  accuracy                    1.0000000          :
          :  -> integral cutoff          0.2500000E+02      :
          :  -> integral neglect         0.1000000E-07      :
          :  -> SCF convergence          0.1000000E-05 Eh   :
          :  -> wf. convergence          0.1000000E-03 e    :
          :  Broyden damping             0.4000000          :
          ...................................................

 iter      E             dE          RMSdq      gap      omega  full diag
   1    -40.0513043 -0.400513E+02  0.580E-05    1.79       0.0  T
   2    -40.0513043  0.175433E-10  0.562E-05    1.79     388.5  T
   3    -40.0513043 -0.746212E-10  0.167E-05    1.79    1305.8  T

   *** convergence criteria satisfied after 3 iterations ***

         #    Occupation            Energy/Eh            Energy/eV
      -------------------------------------------------------------
         1        2.0000           -0.7666398             -20.8613
       ...           ...                  ...                  ...
        29        2.0000           -0.4548585             -12.3773
        30        2.0000           -0.4459851             -12.1359
        31        2.0000           -0.4437265             -12.0744
        32        2.0000           -0.4336702             -11.8008
        33        2.0000           -0.4263877             -11.6026
        34        2.0000           -0.4261758             -11.5968
        35        2.0000           -0.3983599             -10.8399 (HOMO)
        36                         -0.3325516              -9.0492 (LUMO)
        37                         -0.2169159              -5.9026
        38                         -0.1937093              -5.2711
        39                         -0.1792365              -4.8773
        40                         -0.1358545              -3.6968
       ...                                ...                  ...
        63                          0.6889944              18.7485
      -------------------------------------------------------------
                  HL-Gap            0.0658083 Eh            1.7907 eV
             Fermi-level           -0.3654557 Eh           -9.9446 eV

 SCC (total)                   0 d,  0 h,  0 min,  0.008 sec
 SCC setup                      ...        0 min,  0.000 sec (  1.033%)
 Dispersion                     ...        0 min,  0.000 sec (  1.083%)
 classical contributions        ...        0 min,  0.000 sec (  0.255%)
 integral evaluation            ...        0 min,  0.001 sec ( 13.820%)
 iterations                     ...        0 min,  0.003 sec ( 40.451%)
 molecular gradient             ...        0 min,  0.003 sec ( 37.695%)
 printout                       ...        0 min,  0.000 sec (  5.186%)

         :::::::::::::::::::::::::::::::::::::::::::::::::::::
         ::                     SUMMARY                     ::
         :::::::::::::::::::::::::::::::::::::::::::::::::::::
         :: total energy             -39.530635134793 Eh    ::
         :: gradient norm              0.000077399155 Eh/a0 ::
         :: HOMO-LUMO gap              1.790734123982 eV    ::
         ::.................................................::
         :: SCC energy               -40.051304269996 Eh    ::
         :: -> isotropic ES            0.083951158977 Eh    ::
         :: -> anisotropic ES         -0.002748570083 Eh    ::
         :: -> anisotropic XC          0.011218283030 Eh    ::
         :: -> dispersion             -0.021117080790 Eh    ::
         :: repulsion energy           0.520630742804 Eh    ::
         :: add. restraining           0.000000000000 Eh    ::
         :: total charge              -0.000000000000 e     ::
         :::::::::::::::::::::::::::::::::::::::::::::::::::::

           -------------------------------------------------
          |                Property Printout                |
           -------------------------------------------------

    * Orbital Energies and Occupations

         #    Occupation            Energy/Eh            Energy/eV
      -------------------------------------------------------------
         1        2.0000           -0.7666398             -20.8613
       ...           ...                  ...                  ...
        23        2.0000           -0.4915234             -13.3750
        24        2.0000           -0.4822022             -13.1214
        25        2.0000           -0.4771558             -12.9841
        26        2.0000           -0.4754804             -12.9385
        27        2.0000           -0.4686633             -12.7530
        28        2.0000           -0.4596344             -12.5073
        29        2.0000           -0.4548585             -12.3773
        30        2.0000           -0.4459851             -12.1359
        31        2.0000           -0.4437265             -12.0744
        32        2.0000           -0.4336702             -11.8008
        33        2.0000           -0.4263877             -11.6026
        34        2.0000           -0.4261758             -11.5968
        35        2.0000           -0.3983599             -10.8399 (HOMO)
        36                         -0.3325516              -9.0492 (LUMO)
        37                         -0.2169159              -5.9026
        38                         -0.1937093              -5.2711
        39                         -0.1792365              -4.8773
        40                         -0.1358545              -3.6968
        41                          0.0411996               1.1211
        42                          0.0442583               1.2043
        43                          0.0825876               2.2473
        44                          0.0957828               2.6064
        45                          0.1149783               3.1287
        46                          0.1327640               3.6127
       ...                                ...                  ...
        63                          0.6889944              18.7485
      -------------------------------------------------------------
                  HL-Gap            0.0658083 Eh            1.7907 eV
             Fermi-level           -0.3654557 Eh           -9.9446 eV

     #   Z          covCN         q      C6AA      α(0)
     1   5 B        3.111     0.522    14.272     6.301
     2   7 N        2.748    -0.092    23.041     7.129
     3   6 C        3.076     0.044    26.927     8.508
     4   6 C        3.035    -0.051    29.232     8.868
     5   6 C        3.036    -0.043    29.021     8.836
     6   6 C        3.133     0.049    26.703     8.459
     7   6 C        2.900    -0.018    28.451     8.746
     8   6 C        3.133     0.049    26.703     8.459
     9   7 N        2.748    -0.092    23.041     7.129
    10   6 C        3.076     0.044    26.927     8.508
    11   6 C        3.035    -0.051    29.232     8.868
    12   6 C        3.036    -0.043    29.021     8.836
    13   9 F        0.722    -0.369    13.146     4.282
    14   9 F        0.722    -0.369    13.147     4.282
    15   1 H        0.926     0.072     2.058     2.244
    16   1 H        0.926     0.051     2.313     2.378
    17   1 H        0.926     0.050     2.316     2.380
    18   1 H        0.926     0.073     2.050     2.239
    19   1 H        0.926     0.072     2.058     2.244
    20   1 H        0.926     0.051     2.313     2.378
    21   1 H        0.926     0.050     2.316     2.380

 Mol. C6AA /au·bohr⁶  :       6139.253980
 Mol. C8AA /au·bohr⁸  :     152046.070454
 Mol. α(0) /au        :        123.452684


Wiberg/Mayer (AO) data.
largest (>0.10) Wiberg bond orders for each atom

 ---------------------------------------------------------------------------
     #   Z sym  total        # sym  WBO       # sym  WBO       # sym  WBO
 ---------------------------------------------------------------------------
     1   5 B    3.388 --    13 F    0.874    14 F    0.874     2 N    0.794
                             9 N    0.794
     2   7 N    3.615 --     3 C    1.416     6 C    1.150     1 B    0.794
     3   6 C    3.930 --     2 N    1.416     4 C    1.329    15 H    0.966
     4   6 C    3.961 --     5 C    1.535     3 C    1.329    16 H    0.973
     5   6 C    3.954 --     4 C    1.535     6 C    1.248    17 H    0.972
     6   6 C    3.964 --     7 C    1.372     5 C    1.248     2 N    1.150
     7   6 C    3.986 --     6 C    1.372     8 C    1.372    18 H    0.962
     8   6 C    3.964 --     7 C    1.372    12 C    1.248     9 N    1.150
     9   7 N    3.615 --    10 C    1.416     8 C    1.150     1 B    0.794
    10   6 C    3.930 --     9 N    1.416    11 C    1.329    19 H    0.966
    11   6 C    3.961 --    12 C    1.535    10 C    1.329    20 H    0.973
    12   6 C    3.954 --    11 C    1.535     8 C    1.248    21 H    0.972
    13   9 F    0.974 --     1 B    0.874
    14   9 F    0.973 --     1 B    0.874
    15   1 H    0.994 --     3 C    0.966
    16   1 H    0.997 --     4 C    0.973
    17   1 H    0.997 --     5 C    0.972
    18   1 H    0.994 --     7 C    0.962
    19   1 H    0.994 --    10 C    0.966
    20   1 H    0.997 --    11 C    0.973
    21   1 H    0.997 --    12 C    0.972
 ---------------------------------------------------------------------------

Topologies differ in total number of bonds
Writing topology from bond orders to xtbtopo.mol

molecular dipole:
                 x           y           z       tot (Debye)
 q only:       -0.000       1.887      -0.004
   full:       -0.000       1.976      -0.004       5.023
molecular quadrupole (traceless):
                xx          xy          yy          xz          yz          zz
 q only:       11.979       0.003      -4.844       0.002       0.023      -7.135
  q+dip:       14.800       0.003      -2.494       0.003       0.034     -12.305
   full:       12.858       0.003      -4.428       0.002       0.025      -8.430

           -------------------------------------------------
          |                Geometry Summary                 |
           -------------------------------------------------

      molecular mass/u    :      191.9734491
   center of mass at/Å    :        0.0000594      -0.0122660       0.0000304
  moments of inertia/u·Å² :        0.3864077E+03   0.7760683E+03   0.1065526E+04
rotational constants/cm⁻¹ :        0.4362654E-01   0.2172184E-01   0.1582095E-01

 * 23 selected distances

     #   Z          #   Z                                           value/Å
     1   5 B        2   7 N                                       1.5503049
     2   7 N        3   6 C                                       1.3262545
     3   6 C        4   6 C                                       1.4025350
     4   6 C        5   6 C                                       1.3757914
     2   7 N        6   6 C                                       1.3797670
     5   6 C        6   6 C                                       1.4164868
     6   6 C        7   6 C                                       1.3852823
     7   6 C        8   6 C                                       1.3852874
     1   5 B        9   7 N                                       1.5503080 (max)
     8   6 C        9   7 N                                       1.3797634
     9   7 N       10   6 C                                       1.3262574
    10   6 C       11   6 C                                       1.4025328
     8   6 C       12   6 C                                       1.4164842
    11   6 C       12   6 C                                       1.3757935
     1   5 B       13   9 F                                       1.3762929
     1   5 B       14   9 F                                       1.3764766
     3   6 C       15   1 H                                       1.0732591
     4   6 C       16   1 H                                       1.0719079
     5   6 C       17   1 H                                       1.0723177
     7   6 C       18   1 H                                       1.0796109
    10   6 C       19   1 H                                       1.0732585
    11   6 C       20   1 H                                       1.0719072 (min)
    12   6 C       21   1 H                                       1.0723177

 * 5 distinct bonds (by element types)

   Z      Z             #   av. dist./Å        max./Å        min./Å
   1 H    6 C           7     1.0735113     1.0796109     1.0719072
   6 C    6 C           8     1.3950242     1.4164868     1.3757914
   5 B    7 N           2     1.5503065     1.5503080     1.5503049
   6 C    7 N           4     1.3530106     1.3797670     1.3262545
   5 B    9 F           2     1.3763848     1.3764766     1.3762929


optimized geometry written to: xtbopt.xyz


           -------------------------------------------------
          | TOTAL ENERGY              -39.530635134793 Eh   |
          | GRADIENT NORM               0.000077399155 Eh/α |
          | HOMO-LUMO GAP               1.790734123982 eV   |
           -------------------------------------------------

------------------------------------------------------------------------
 * finished run on 2024/05/20 at 05:00:29.497     
------------------------------------------------------------------------
 total:
 * wall-time:     0 d,  0 h,  0 min,  0.162 sec
 *  cpu-time:     0 d,  0 h,  0 min,  1.065 sec
 * ratio c/w:     6.577 speedup
 SCF:
 * wall-time:     0 d,  0 h,  0 min,  0.022 sec
 *  cpu-time:     0 d,  0 h,  0 min,  0.151 sec
 * ratio c/w:     6.784 speedup
 ANC optimizer:
 * wall-time:     0 d,  0 h,  0 min,  0.127 sec
 *  cpu-time:     0 d,  0 h,  0 min,  0.836 sec
 * ratio c/w:     6.608 speedup

