21
 energy: -39.530635134793 gnorm: 0.000077399155 xtb: 6.6.1 (8d0f1dd)
B            0.00024132476764       -1.16313373080737        0.00071169801202
N           -1.24616742146356       -0.24123043617614       -0.00141005427832
C           -2.51727988566624       -0.61967335239375       -0.00358300150580
C           -3.35667329342178        0.50394676489045       -0.00275148728733
C           -2.54046183292744        1.61146296092497        0.00012621329160
C           -1.20546967111784        1.13793393103936        0.00101847440729
C           -0.00023303719335        1.82087499463651        0.00271151547501
C            1.20522501537624        1.13831388724572        0.00129156469833
N            1.24636048471134       -0.24083364247303       -0.00127364856041
C            2.51759654595322       -0.61887315415810       -0.00312472372649
C            3.35662909086767        0.50501327335825       -0.00191064352925
C            2.54006270070595        1.61227085536077        0.00082368895843
F            0.00040145317085       -1.95268642523818       -1.12658080696173
F            0.00032841478617       -1.94670476161466        1.13239365096019
H           -2.78161159138707       -1.65987014374517       -0.00562466572329
H           -4.42836846155125        0.48264739439409       -0.00418529206460
H           -2.83105119567350        2.64365537578165        0.00144323897695
H           -0.00040157617508        2.90048432186384        0.00450292556114
H            2.78225927612136       -1.65898502717648       -0.00522926545716
H            4.42833071394687        0.48405762492600       -0.00302106018183
H            2.83032306956979        2.64455554176127        0.00233535883527
